
                                 *****************
                                 * O   R   C   A *
                                 *****************

           --- An Ab Initio, DFT and Semiempirical electronic structure package ---

                  #######################################################
                  #                        -***-                        #
                  #          Department of theory and spectroscopy      #
                  #               Directorship: Frank Neese             #
                  #        Max Planck Institute fuer Kohlenforschung    #
                  #                Kaiser Wilhelm Platz 1               #
                  #                 D-45470 Muelheim/Ruhr               #
                  #                      Germany                        #
                  #                                                     #
                  #                  All rights reserved                #
                  #                        -***-                        #
                  #######################################################


                         Program Version 4.1.2  - RELEASE  -


 With contributions from (in alphabetic order):
   Daniel Aravena         : Magnetic Properties
   Michael Atanasov       : Ab Initio Ligand Field Theory
   Alexander A. Auer      : GIAO ZORA
   Ute Becker             : Parallelization
   Giovanni Bistoni       : ED, Open-shell LED
   Martin Brehm           : Molecular dynamics
   Dmytro Bykov           : SCF Hessian
   Vijay G. Chilkuri      : MRCI spin determinant printing
   Dipayan Datta          : RHF DLPNO-CCSD density
   Achintya Kumar Dutta   : EOM-CC, STEOM-CC
   Dmitry Ganyushin       : Spin-Orbit,Spin-Spin,Magnetic field MRCI
   Miquel Garcia          : C-PCM Hessian
   Yang Guo               : DLPNO-NEVPT2, CIM, IAO-localization
   Andreas Hansen         : Spin unrestricted coupled pair/coupled cluster methods
   Benjamin Helmich-Paris : CASSCF linear response (MC-RPA)
   Lee Huntington         : MR-EOM, pCC
   Robert Izsak           : Overlap fitted RIJCOSX, COSX-SCS-MP3, EOM
   Christian Kollmar      : KDIIS, OOCD, Brueckner-CCSD(T), CCSD density
   Simone Kossmann        : Meta GGA functionals, TD-DFT gradient, OOMP2, MP2 Hessian
   Martin Krupicka        : AUTO-CI
   Lucas Lang             : DCDCAS
   Dagmar Lenk            : GEPOL surface, SMD
   Dimitrios Liakos       : Extrapolation schemes; parallel MDCI
   Dimitrios Manganas     : ROCIS; embedding schemes
   Dimitrios Pantazis     : SARC Basis sets
   Taras Petrenko         : DFT Hessian,TD-DFT gradient, ASA, ECA, R-Raman, ABS, FL, XAS/XES, NRVS
   Peter Pinski           : DLPNO-MP2, DLPNO-MP2 Gradient
   Christoph Reimann      : Effective Core Potentials
   Marius Retegan         : Local ZFS, SOC
   Christoph Riplinger    : Optimizer, TS searches, QM/MM, DLPNO-CCSD(T), (RO)-DLPNO pert. Triples
   Tobias Risthaus        : Range-separated hybrids, TD-DFT gradient, RPA, STAB
   Michael Roemelt        : Restricted open shell CIS
   Masaaki Saitow         : Open-shell DLPNO
   Barbara Sandhoefer     : DKH picture change effects
   Avijit Sen             : IP-ROCIS
   Kantharuban Sivalingam : CASSCF convergence, NEVPT2, FIC-MRCI
   Bernardo de Souza      : ESD, SOC TD-DFT
   Georgi Stoychev        : AutoAux, RI-MP2 NMR
   Willem Van den Heuvel  : Paramagnetic NMR
   Boris Wezisla          : Elementary symmetry handling
   Frank Wennmohs         : Technical directorship


 We gratefully acknowledge several colleagues who have allowed us to
 interface, adapt or use parts of their codes:
   Stefan Grimme, W. Hujo, H. Kruse,             : VdW corrections, initial TS optimization,
                  C. Bannwarth                     DFT functionals, gCP, sTDA/sTD-DF
   Ed Valeev                                     : LibInt (2-el integral package), F12 methods
   Garnet Chan, S. Sharma, J. Yang, R. Olivares  : DMRG
   Ulf Ekstrom                                   : XCFun DFT Library
   Mihaly Kallay                                 : mrcc  (arbitrary order and MRCC methods)
   Andreas Klamt, Michael Diedenhofen            : otool_cosmo (COSMO solvation model)
   Jiri Pittner, Ondrej Demel                    : Mk-CCSD
   Frank Weinhold                                : gennbo (NPA and NBO analysis)
   Christopher J. Cramer and Donald G. Truhlar   : smd solvation model
   Lars Goerigk                                  : TD-DFT with DH, B97 family of functionals
   V. Asgeirsson, H. Jonsson                     : NEB implementation
   FAccTs GmbH                                   : IRC, NEB, NEB-TS, Multilevel


 Your calculation uses the libint2 library for the computation of 2-el integrals
 For citations please refer to: http://libint.valeyev.net

 This ORCA versions uses:
   CBLAS   interface :  Fast vector & matrix operations
   LAPACKE interface :  Fast linear algebra routines
   SCALAPACK package :  Parallel linear algebra routines


----- Orbital basis set information -----
Your calculation utilizes the basis: aug-pc-4
   H, C-F              : F. Jensen, J. Chem. Phys. 115, 9113 (2001).
                         F. Jensen, J. Chem. Phys. 116, 7372 (2002).
                         F. Jensen, J. Chem. Phys. 117, 9234 (2002).
   Si-Cl               : F. Jensen, T. Helgaker, J. Chem. Phys. 121, 3463 (2004).
   He-B, Ne-Mg, Al, Ar : F. Jensen, J. Phys. Chem. A 111, 11198 (2007).
   K, Ca, Ga-Kr        : F. Jensen, J. Chem. Phys. 136, 094110 (2012).
   Sc-Zn               : F. Jensen, J. Chem. Phys. 138, 014107 (2013).

================================================================================
                                        WARNINGS
                       Please study these warnings very carefully!
================================================================================


INFO   : the flag for use of LIBINT has been found!

================================================================================
                                       INPUT FILE
================================================================================
NAME = licn_pbe.inp
|  1> !uks pbe nori aug-pc-4 grid7 nofinalgrid verytightscf
|  2> 
|  3> %maxcore 1500
|  4> 
|  5> %pal nprocs 1 end
|  6> 
|  7> %scf
|  8> 	maxiter 200
|  9> end
| 10> %elprop
| 11> 	dipole true
| 12> 	 polar 1
| 13> 	 maxiter 200
| 14> end
| 15> 
| 16> * xyz 0 1
| 17> Li 1.4157454937 -0.6164252897 0.0000000000
| 18> C -0.6780148225 -0.3855159545 0.0000000000
| 19> N -0.0211306712 0.6069412443 0.0000000000
| 20> *
| 21> 
| 22>                          ****END OF INPUT****
================================================================================

                       ****************************
                       * Single Point Calculation *
                       ****************************

---------------------------------
CARTESIAN COORDINATES (ANGSTROEM)
---------------------------------
  Li     1.415745   -0.616425    0.000000
  C     -0.678015   -0.385516    0.000000
  N     -0.021131    0.606941    0.000000

----------------------------
CARTESIAN COORDINATES (A.U.)
----------------------------
  NO LB      ZA    FRAG     MASS         X           Y           Z
   0 Li    3.0000    0     6.941    2.675371   -1.164875    0.000000
   1 C     6.0000    0    12.011   -1.281262   -0.728520    0.000000
   2 N     7.0000    0    14.007   -0.039931    1.146953    0.000000

--------------------------------
INTERNAL COORDINATES (ANGSTROEM)
--------------------------------
 Li     0   0   0     0.000000000000     0.00000000     0.00000000
 C      1   0   0     2.106454695164     0.00000000     0.00000000
 N      2   1   0     1.190154645279    62.79376329     0.00000000

---------------------------
INTERNAL COORDINATES (A.U.)
---------------------------
 Li     0   0   0     0.000000000000     0.00000000     0.00000000
 C      1   0   0     3.980622487372     0.00000000     0.00000000
 N      2   1   0     2.249066336591    62.79376329     0.00000000

---------------------
BASIS SET INFORMATION
---------------------
There are 3 groups of distinct atoms

 Group   1 Type Li  : 31s9p4d3f2g contracted to 9s5p4d3f2g pattern {12121111111/51111/1111/111/11}
 Group   2 Type C   : 28s12p7d4f3g2h contracted to 9s8p7d4f3g2h pattern {11101111111/51111111/1111111/1111/111/11}
 Group   3 Type N   : 27s12p7d4f3g2h contracted to 9s8p7d4f3g2h pattern {1191111111/51111111/1111111/1111/111/11}

Atom   0Li   basis set group =>   1
Atom   1C    basis set group =>   2
Atom   2N    basis set group =>   3
------------------------------------------------------------------------------
                           ORCA GTO INTEGRAL CALCULATION
------------------------------------------------------------------------------

                         BASIS SET STATISTICS AND STARTUP INFO

 # of primitive gaussian shells          ...  160
 # of primitive gaussian functions       ...  468
 # of contracted shells                  ...   89
 # of contracted basis functions         ...  373
 Highest angular momentum                ...    5
 Maximum contraction depth               ...   12
 Integral package used                   ... LIBINT
 Integral threshhold            Thresh   ...  1.000e-12
 Primitive cut-off              TCut     ...  1.000e-14


------------------------------ INTEGRAL EVALUATION ----------------------------


 * One electron integrals 
 Pre-screening matrix                    ... done
 Shell pair data                         ... done (   0.001 sec)

-------------------------------------------------------------------------------
                                 ORCA SCF
-------------------------------------------------------------------------------

------------
SCF SETTINGS
------------
Hamiltonian:
 Density Functional     Method          .... DFT(GTOs)
 Exchange Functional    Exchange        .... PBE
   PBE kappa parameter   XKappa         ....  0.804000
   PBE mue parameter    XMuePBE         ....  0.219520
 Correlation Functional Correlation     .... PBE
   PBE beta parameter  CBetaPBE         ....  0.066725
 LDA part of GGA corr.  LDAOpt          .... PW91-LDA
 Gradients option       PostSCFGGA      .... off
   Density functional embedding theory  .... OFF
   NL short-range parameter             ....  6.400000


General Settings:
 Integral files         IntName         .... licn_pbe
 Hartree-Fock type      HFTyp           .... UHF
 Total Charge           Charge          ....    0
 Multiplicity           Mult            ....    1
 Number of Electrons    NEL             ....   16
 Basis Dimension        Dim             ....  373
 Nuclear Repulsion      ENuc            ....     29.0850277302 Eh

Convergence Acceleration:
 DIIS                   CNVDIIS         .... on
   Start iteration      DIISMaxIt       ....    12
   Startup error        DIISStart       ....  0.200000
   # of expansion vecs  DIISMaxEq       ....     5
   Bias factor          DIISBfac        ....   1.050
   Max. coefficient     DIISMaxC        ....  10.000
 Newton-Raphson         CNVNR           .... off
 SOSCF                  CNVSOSCF        .... off
 Level Shifting         CNVShift        .... on
   Level shift para.    LevelShift      ....    0.2500
   Turn off err/grad.   ShiftErr        ....    0.0010
 Zerner damping         CNVZerner       .... off
 Static damping         CNVDamp         .... on
   Fraction old density DampFac         ....    0.7000
   Max. Damping (<1)    DampMax         ....    0.9800
   Min. Damping (>=0)   DampMin         ....    0.0000
   Turn off err/grad.   DampErr         ....    0.1000
 Fernandez-Rico         CNVRico         .... off

SCF Procedure:
 Maximum # iterations   MaxIter         ....   200
 SCF integral mode      SCFMode         .... Direct
   Integral package                     .... LIBINT
 Reset frequency        DirectResetFreq ....    20
 Integral Threshold     Thresh          ....  1.000e-12 Eh
 Primitive CutOff       TCut            ....  1.000e-14 Eh

Convergence Tolerance:
 Convergence Check Mode ConvCheckMode   .... Total+1el-Energy
 Convergence forced     ConvForced      .... 0
 Energy Change          TolE            ....  1.000e-09 Eh
 1-El. energy change                    ....  1.000e-06 Eh
 DIIS Error             TolErr          ....  1.000e-08


Diagonalization of the overlap matrix:
Smallest eigenvalue                        ... 8.815e-07
Time for diagonalization                   ...    0.024 sec
Threshold for overlap eigenvalues          ... 1.000e-08
Number of eigenvalues below threshold      ... 0
Time for construction of square roots      ...    0.017 sec
Total time needed                          ...    0.042 sec

-------------------
DFT GRID GENERATION
-------------------

General Integration Accuracy     IntAcc      ...  5.670
Radial Grid Type                 RadialGrid  ... Gauss-Chebyshev
Angular Grid (max. acc.)         AngularGrid ... Lebedev-770
Angular grid pruning method      GridPruning ... 3 (G Style)
Weight generation scheme         WeightScheme... Becke
Basis function cutoff            BFCut       ...    1.0000e-12
Integration weight cutoff        WCut        ...    1.0000e-14
Grids for H and He will be reduced by one unit

# of grid points (after initial pruning)     ...  74166 (   0.0 sec)
# of grid points (after weights+screening)   ...  73573 (   0.0 sec)
nearest neighbour list constructed           ...    0.0 sec
Grid point re-assignment to atoms done       ...    0.0 sec
Grid point division into batches done        ...    1.4 sec
Reduced shell lists constructed in    2.2 sec

Total number of grid points                  ...    73573
Total number of batches                      ...     1151
Average number of points per batch           ...       63
Average number of grid points per atom       ...    24524
Average number of shells per batch           ...    66.52 (74.75%)
Average number of basis functions per batch  ...   281.71 (75.53%)
Average number of large shells per batch     ...    60.09 (90.34%)
Average number of large basis fcns per batch ...   254.87 (90.47%)
Maximum spatial batch extension              ...  28.04, 28.59, 33.31 au
Average spatial batch extension              ...   3.16,  3.18,  3.28 au

Time for grid setup =    2.207 sec

------------------------------
INITIAL GUESS: MODEL POTENTIAL
------------------------------
Loading Hartree-Fock densities                     ... done
Calculating cut-offs                               ... done
Setting up the integral package                    ... done
Initializing the effective Hamiltonian             ... done
Starting the Coulomb interaction                   ... done (   0.1 sec)
Reading the grid                                   ... done
Mapping shells                                     ... done
Starting the XC term evaluation                    ... done (   4.2 sec)
  promolecular density results
     # of electrons  =     15.999999158
     EX              =    -13.283760701
     EC              =     -0.463354135
     EX+EC           =    -13.747114836
Transforming the Hamiltonian                       ... done (   0.0 sec)
Diagonalizing the Hamiltonian                      ... done (   0.0 sec)
Back transforming the eigenvectors                 ... done (   0.0 sec)
Now organizing SCF variables                       ... done
                      ------------------
                      INITIAL GUESS DONE (   6.6 sec)
                      ------------------
--------------
SCF ITERATIONS
--------------
ITER       Energy         Delta-E        Max-DP      RMS-DP      [F,P]     Damp
               ***  Starting incremental Fock matrix formation  ***
  0   -100.1660080252   0.000000000000 0.02003555  0.00021203  0.2748845 0.7000
  1   -100.2275743512  -0.061566326075 0.02108711  0.00016548  0.0927016 0.7000
                               ***Turning on DIIS***
  2   -100.2440226706  -0.016448319393 0.03195824  0.00029236  0.0421290 0.0000
  3   -100.2762987381  -0.032276067520 0.01664299  0.00011758  0.0445227 0.0000
  4   -100.2823565561  -0.006057817966 0.00475764  0.00003935  0.0407471 0.0000
  5   -100.2846354164  -0.002278860319 0.00263698  0.00002172  0.0117025 0.0000
  6   -100.2848369750  -0.000201558599 0.00171557  0.00001128  0.0026389 0.0000
  7   -100.2848519719  -0.000014996910 0.00126327  0.00000857  0.0007278 0.0000
  8   -100.2848551803  -0.000003208370 0.00019876  0.00000147  0.0001754 0.0000
  9   -100.2848552421  -0.000000061759 0.00002176  0.00000031  0.0001339 0.0000
 10   -100.2848552702  -0.000000028158 0.00000780  0.00000007  0.0000206 0.0000
 11   -100.2848552712  -0.000000000984 0.00000896  0.00000011  0.0000044 0.0000
 12   -100.2848552713  -0.000000000103 0.00001288  0.00000012  0.0000011 0.0000
                 **** Energy Check signals convergence ****

               *****************************************************
               *                     SUCCESS                       *
               *           SCF CONVERGED AFTER  13 CYCLES          *
               *****************************************************


----------------
TOTAL SCF ENERGY
----------------

Total Energy       :         -100.28485527 Eh           -2728.88965 eV

Components:
Nuclear Repulsion  :           29.08502773 Eh             791.44384 eV
Electronic Energy  :         -129.36988300 Eh           -3520.33349 eV
One Electron Energy:         -193.47941692 Eh           -5264.84259 eV
Two Electron Energy:           64.10953392 Eh            1744.50911 eV

Virial components:
Potential Energy   :         -200.12441374 Eh           -5445.66215 eV
Kinetic Energy     :           99.83955847 Eh            2716.77250 eV
Virial Ratio       :            2.00446012


DFT components:
N(Alpha)           :        7.999999033459 electrons
N(Beta)            :        7.999999033459 electrons
N(Total)           :       15.999998066918 electrons
E(X)               :      -13.532565525326 Eh       
E(C)               :       -0.482158969203 Eh       
E(XC)              :      -14.014724494529 Eh       
DFET-embed. en.    :        0.000000000000 Eh       

---------------
SCF CONVERGENCE
---------------

  Last Energy change         ...   -4.8885e-12  Tolerance :   1.0000e-09
  Last MAX-Density change    ...    8.0484e-06  Tolerance :   1.0000e-08
  Last RMS-Density change    ...    1.0780e-07  Tolerance :   1.0000e-09
  Last DIIS Error            ...    3.8626e-07  Tolerance :   1.0000e-08

             **** THE GBW FILE WAS UPDATED (licn_pbe.gbw) ****
             **** DENSITY FILE WAS UPDATED (licn_pbe.scfp.tmp) ****
             **** ENERGY FILE WAS UPDATED (licn_pbe.en.tmp) ****
----------------------
UHF SPIN CONTAMINATION
----------------------

Warning: in a DFT calculation there is little theoretical justification to 
         calculate <S**2> as in Hartree-Fock theory. We will do it anyways
         but you should keep in mind that the values have only limited relevance

Expectation value of <S**2>     :     0.000000
Ideal value S*(S+1) for S=0.0   :     0.000000
Deviation                       :     0.000000

----------------
ORBITAL ENERGIES
----------------
                 SPIN UP ORBITALS
  NO   OCC          E(Eh)            E(eV) 
   0   1.0000     -13.939711      -379.3188 
   1   1.0000      -9.860891      -268.3285 
   2   1.0000      -1.912431       -52.0399 
   3   1.0000      -0.778489       -21.1838 
   4   1.0000      -0.342769        -9.3272 
   5   1.0000      -0.288338        -7.8461 
   6   1.0000      -0.269414        -7.3311 
   7   1.0000      -0.216231        -5.8839 
   8   0.0000      -0.066776        -1.8171 
   9   0.0000      -0.028318        -0.7706 
  10   0.0000      -0.009883        -0.2689 
  11   0.0000       0.003099         0.0843 
  12   0.0000       0.008931         0.2430 
  13   0.0000       0.011529         0.3137 
  14   0.0000       0.018379         0.5001 
  15   0.0000       0.019331         0.5260 
  16   0.0000       0.029699         0.8082 
  17   0.0000       0.032895         0.8951 
  18   0.0000       0.037413         1.0181 
  19   0.0000       0.040032         1.0893 
  20   0.0000       0.041976         1.1422 
  21   0.0000       0.042772         1.1639 
  22   0.0000       0.046933         1.2771 
  23   0.0000       0.053917         1.4672 
  24   0.0000       0.065173         1.7734 
  25   0.0000       0.067903         1.8477 
  26   0.0000       0.072072         1.9612 
  27   0.0000       0.075349         2.0504 
  28   0.0000       0.079706         2.1689 
  29   0.0000       0.083443         2.2706 
  30   0.0000       0.088258         2.4016 
  31   0.0000       0.095351         2.5946 
  32   0.0000       0.098019         2.6672 
  33   0.0000       0.098256         2.6737 
  34   0.0000       0.105650         2.8749 
  35   0.0000       0.106711         2.9038 
  36   0.0000       0.114241         3.1087 
  37   0.0000       0.115819         3.1516 
  38   0.0000       0.127155         3.4601 
  39   0.0000       0.134818         3.6686 
  40   0.0000       0.135939         3.6991 
  41   0.0000       0.140255         3.8165 
  42   0.0000       0.140443         3.8216 
  43   0.0000       0.151276         4.1164 
  44   0.0000       0.158291         4.3073 
  45   0.0000       0.159055         4.3281 
  46   0.0000       0.160210         4.3595 
  47   0.0000       0.161265         4.3882 
  48   0.0000       0.163509         4.4493 
  49   0.0000       0.164340         4.4719 
  50   0.0000       0.169414         4.6100 
  51   0.0000       0.170966         4.6522 
  52   0.0000       0.176672         4.8075 
  53   0.0000       0.179246         4.8775 
  54   0.0000       0.184714         5.0263 
  55   0.0000       0.194128         5.2825 
  56   0.0000       0.201084         5.4718 
  57   0.0000       0.206037         5.6065 
  58   0.0000       0.209223         5.6932 
  59   0.0000       0.216805         5.8996 
  60   0.0000       0.229281         6.2391 
  61   0.0000       0.238414         6.4876 
  62   0.0000       0.256629         6.9832 
  63   0.0000       0.265773         7.2321 
  64   0.0000       0.267789         7.2869 
  65   0.0000       0.270593         7.3632 
  66   0.0000       0.272257         7.4085 
  67   0.0000       0.281463         7.6590 
  68   0.0000       0.281969         7.6728 
  69   0.0000       0.290190         7.8965 
  70   0.0000       0.296564         8.0699 
  71   0.0000       0.304816         8.2945 
  72   0.0000       0.309382         8.4187 
  73   0.0000       0.321187         8.7399 
  74   0.0000       0.327933         8.9235 
  75   0.0000       0.333674         9.0797 
  76   0.0000       0.338898         9.2219 
  77   0.0000       0.342453         9.3186 
  78   0.0000       0.356268         9.6946 
  79   0.0000       0.372199        10.1280 
  80   0.0000       0.378230        10.2922 
  81   0.0000       0.382649        10.4124 
  82   0.0000       0.386912        10.5284 
  83   0.0000       0.399190        10.8625 
  84   0.0000       0.399294        10.8653 
  85   0.0000       0.409654        11.1472 
  86   0.0000       0.420161        11.4332 
  87   0.0000       0.424506        11.5514 
  88   0.0000       0.430592        11.7170 
  89   0.0000       0.436130        11.8677 
  90   0.0000       0.447542        12.1782 
  91   0.0000       0.461729        12.5643 
  92   0.0000       0.473485        12.8842 
  93   0.0000       0.474618        12.9150 
  94   0.0000       0.490559        13.3488 
  95   0.0000       0.497669        13.5423 
  96   0.0000       0.506536        13.7835 
  97   0.0000       0.522260        14.2114 
  98   0.0000       0.534993        14.5579 
  99   0.0000       0.535499        14.5717 
 100   0.0000       0.538679        14.6582 
 101   0.0000       0.557020        15.1573 
 102   0.0000       0.564906        15.3719 
 103   0.0000       0.575451        15.6588 
 104   0.0000       0.575958        15.6726 
 105   0.0000       0.579839        15.7782 
 106   0.0000       0.592231        16.1154 
 107   0.0000       0.593099        16.1390 
 108   0.0000       0.612432        16.6651 
 109   0.0000       0.617327        16.7983 
 110   0.0000       0.626125        17.0377 
 111   0.0000       0.629405        17.1270 
 112   0.0000       0.634169        17.2566 
 113   0.0000       0.644733        17.5441 
 114   0.0000       0.652025        17.7425 
 115   0.0000       0.659918        17.9573 
 116   0.0000       0.666553        18.1378 
 117   0.0000       0.670895        18.2560 
 118   0.0000       0.677287        18.4299 
 119   0.0000       0.683917        18.6103 
 120   0.0000       0.684483        18.6257 
 121   0.0000       0.690482        18.7890 
 122   0.0000       0.690691        18.7947 
 123   0.0000       0.708555        19.2808 
 124   0.0000       0.735307        20.0087 
 125   0.0000       0.735916        20.0253 
 126   0.0000       0.760981        20.7074 
 127   0.0000       0.777617        21.1600 
 128   0.0000       0.790632        21.5142 
 129   0.0000       0.794410        21.6170 
 130   0.0000       0.795606        21.6495 
 131   0.0000       0.822684        22.3864 
 132   0.0000       0.835259        22.7286 
 133   0.0000       0.838319        22.8118 
 134   0.0000       0.842494        22.9254 
 135   0.0000       0.858199        23.3528 
 136   0.0000       0.874996        23.8099 
 137   0.0000       0.901442        24.5295 
 138   0.0000       0.908796        24.7296 
 139   0.0000       0.915957        24.9245 
 140   0.0000       0.924722        25.1630 
 141   0.0000       0.938104        25.5271 
 142   0.0000       0.944951        25.7134 
 143   0.0000       0.957409        26.0524 
 144   0.0000       0.966091        26.2887 
 145   0.0000       0.978037        26.6138 
 146   0.0000       0.997332        27.1388 
 147   0.0000       1.000020        27.2119 
 148   0.0000       1.012651        27.5556 
 149   0.0000       1.033339        28.1186 
 150   0.0000       1.036181        28.1959 
 151   0.0000       1.052446        28.6385 
 152   0.0000       1.056918        28.7602 
 153   0.0000       1.061147        28.8753 
 154   0.0000       1.092149        29.7189 
 155   0.0000       1.094313        29.7778 
 156   0.0000       1.095722        29.8161 
 157   0.0000       1.110512        30.2186 
 158   0.0000       1.132789        30.8247 
 159   0.0000       1.160034        31.5661 
 160   0.0000       1.163497        31.6604 
 161   0.0000       1.191449        32.4210 
 162   0.0000       1.199467        32.6392 
 163   0.0000       1.210726        32.9455 
 164   0.0000       1.244560        33.8662 
 165   0.0000       1.255063        34.1520 
 166   0.0000       1.260540        34.3010 
 167   0.0000       1.300637        35.3921 
 168   0.0000       1.339769        36.4570 
 169   0.0000       1.354927        36.8694 
 170   0.0000       1.406270        38.2666 
 171   0.0000       1.471770        40.0489 
 172   0.0000       1.485066        40.4107 
 173   0.0000       1.526265        41.5318 
 174   0.0000       1.570994        42.7489 
 175   0.0000       1.578680        42.9581 
 176   0.0000       1.615751        43.9668 
 177   0.0000       1.620061        44.0841 
 178   0.0000       1.655017        45.0353 
 179   0.0000       1.696867        46.1741 
 180   0.0000       1.755181        47.7609 
 181   0.0000       1.786234        48.6059 
 182   0.0000       1.804749        49.1097 
 183   0.0000       1.837410        49.9985 
 184   0.0000       1.867031        50.8045 
 185   0.0000       1.960502        53.3480 
 186   0.0000       1.996550        54.3289 
 187   0.0000       2.064510        56.1782 
 188   0.0000       2.090192        56.8770 
 189   0.0000       2.101842        57.1940 
 190   0.0000       2.122437        57.7544 
 191   0.0000       2.170703        59.0678 
 192   0.0000       2.192649        59.6650 
 193   0.0000       2.193543        59.6893 
 194   0.0000       2.220060        60.4109 
 195   0.0000       2.221946        60.4622 
 196   0.0000       2.276512        61.9470 
 197   0.0000       2.306131        62.7530 
 198   0.0000       2.345800        63.8325 
 199   0.0000       2.410157        65.5837 
 200   0.0000       2.459662        66.9308 
 201   0.0000       2.474852        67.3442 
 202   0.0000       2.493387        67.8485 
 203   0.0000       2.546640        69.2976 
 204   0.0000       2.555882        69.5491 
 205   0.0000       2.611993        71.0759 
 206   0.0000       2.614009        71.1308 
 207   0.0000       2.685418        73.0740 
 208   0.0000       2.699541        73.4582 
 209   0.0000       2.739605        74.5484 
 210   0.0000       2.748775        74.7980 
 211   0.0000       2.753129        74.9164 
 212   0.0000       2.829569        76.9965 
 213   0.0000       2.886181        78.5370 
 214   0.0000       2.916201        79.3539 
 215   0.0000       3.001112        81.6644 
 216   0.0000       3.036382        82.6241 
 217   0.0000       3.067815        83.4795 
 218   0.0000       3.072989        83.6203 
 219   0.0000       3.077677        83.7478 
 220   0.0000       3.118297        84.8532 
 221   0.0000       3.180706        86.5514 
 222   0.0000       3.199603        87.0656 
 223   0.0000       3.248144        88.3865 
 224   0.0000       3.323515        90.4374 
 225   0.0000       3.348919        91.1287 
 226   0.0000       3.448810        93.8469 
 227   0.0000       3.469197        94.4016 
 228   0.0000       3.544848        96.4602 
 229   0.0000       3.789207       103.1096 
 230   0.0000       3.855383       104.9103 
 231   0.0000       4.055239       110.3487 
 232   0.0000       4.126256       112.2811 
 233   0.0000       4.173009       113.5534 
 234   0.0000       4.183558       113.8404 
 235   0.0000       4.238204       115.3274 
 236   0.0000       4.252929       115.7281 
 237   0.0000       4.355498       118.5191 
 238   0.0000       4.438633       120.7814 
 239   0.0000       4.537028       123.4588 
 240   0.0000       4.550663       123.8298 
 241   0.0000       4.602999       125.2540 
 242   0.0000       4.617079       125.6371 
 243   0.0000       4.748722       129.2193 
 244   0.0000       4.768146       129.7479 
 245   0.0000       4.804792       130.7450 
 246   0.0000       4.831701       131.4773 
 247   0.0000       4.846892       131.8906 
 248   0.0000       4.872334       132.5829 
 249   0.0000       4.901521       133.3772 
 250   0.0000       4.965201       135.1100 
 251   0.0000       5.053197       137.5045 
 252   0.0000       5.139008       139.8395 
 253   0.0000       5.239976       142.5870 
 254   0.0000       5.256651       143.0407 
 255   0.0000       5.270886       143.4281 
 256   0.0000       5.328187       144.9873 
 257   0.0000       5.343458       145.4029 
 258   0.0000       5.407646       147.1495 
 259   0.0000       5.437478       147.9613 
 260   0.0000       5.543401       150.8436 
 261   0.0000       5.659603       154.0056 
 262   0.0000       5.668280       154.2417 
 263   0.0000       5.832836       158.7195 
 264   0.0000       5.923733       161.1930 
 265   0.0000       6.033863       164.1898 
 266   0.0000       6.044190       164.4708 
 267   0.0000       6.093566       165.8144 
 268   0.0000       6.276187       170.7837 
 269   0.0000       6.318071       171.9235 
 270   0.0000       6.414235       174.5402 
 271   0.0000       6.507891       177.0887 
 272   0.0000       6.655844       181.1147 
 273   0.0000       6.657445       181.1583 
 274   0.0000       6.815300       185.4537 
 275   0.0000       6.833615       185.9521 
 276   0.0000       6.905367       187.9046 
 277   0.0000       7.070711       192.4038 
 278   0.0000       7.102712       193.2746 
 279   0.0000       7.329367       199.4422 
 280   0.0000       7.858694       213.8459 
 281   0.0000       8.128078       221.1763 
 282   0.0000       8.270100       225.0409 
 283   0.0000       8.334577       226.7954 
 284   0.0000       9.175575       249.6801 
 285   0.0000       9.437990       256.8208 
 286   0.0000       9.782423       266.1933 
 287   0.0000      10.174383       276.8590 
 288   0.0000      10.189270       277.2641 
 289   0.0000      10.233263       278.4612 
 290   0.0000      10.274708       279.5890 
 291   0.0000      10.342702       281.4392 
 292   0.0000      10.431742       283.8621 
 293   0.0000      10.432272       283.8766 
 294   0.0000      10.448303       284.3128 
 295   0.0000      10.523379       286.3557 
 296   0.0000      10.625910       289.1457 
 297   0.0000      10.632123       289.3148 
 298   0.0000      10.735337       292.1234 
 299   0.0000      10.841953       295.0245 
 300   0.0000      10.844613       295.0969 
 301   0.0000      10.895981       296.4947 
 302   0.0000      11.051031       300.7139 
 303   0.0000      11.090887       301.7984 
 304   0.0000      11.386842       309.8517 
 305   0.0000      11.475240       312.2572 
 306   0.0000      11.483348       312.4778 
 307   0.0000      11.509421       313.1873 
 308   0.0000      11.526049       313.6397 
 309   0.0000      11.569555       314.8236 
 310   0.0000      11.577386       315.0367 
 311   0.0000      11.584907       315.2413 
 312   0.0000      11.632419       316.5342 
 313   0.0000      11.668187       317.5075 
 314   0.0000      11.722964       318.9981 
 315   0.0000      11.723335       319.0082 
 316   0.0000      11.835910       322.0715 
 317   0.0000      11.915123       324.2270 
 318   0.0000      11.950173       325.1807 
 319   0.0000      12.098706       329.2225 
 320   0.0000      12.123128       329.8871 
 321   0.0000      12.124897       329.9352 
 322   0.0000      12.269722       333.8761 
 323   0.0000      12.459340       339.0359 
 324   0.0000      12.507691       340.3516 
 325   0.0000      12.651588       344.2672 
 326   0.0000      12.725072       346.2668 
 327   0.0000      12.846452       349.5697 
 328   0.0000      12.965028       352.7963 
 329   0.0000      12.970082       352.9339 
 330   0.0000      13.537012       368.3608 
 331   0.0000      13.705094       372.9346 
 332   0.0000      13.768689       374.6651 
 333   0.0000      14.528016       395.3274 
 334   0.0000      14.562269       396.2595 
 335   0.0000      14.646238       398.5444 
 336   0.0000      14.750732       401.3878 
 337   0.0000      14.761686       401.6859 
 338   0.0000      15.005557       408.3220 
 339   0.0000      15.062976       409.8844 
 340   0.0000      15.374751       418.3683 
 341   0.0000      15.431337       419.9080 
 342   0.0000      15.593730       424.3270 
 343   0.0000      15.809877       430.2086 
 344   0.0000      15.890595       432.4051 
 345   0.0000      16.020401       435.9373 
 346   0.0000      16.728466       455.2047 
 347   0.0000      16.888968       459.5722 
 348   0.0000      16.970819       461.7995 
 349   0.0000      17.141940       466.4559 
 350   0.0000      17.685603       481.2497 
 351   0.0000      17.727932       482.4016 
 352   0.0000      17.770956       483.5723 
 353   0.0000      18.652682       507.5653 
 354   0.0000      19.070426       518.9327 
 355   0.0000      19.119367       520.2644 
 356   0.0000      21.469593       584.2173 
 357   0.0000      24.012773       653.4208 
 358   0.0000      26.138177       711.2560 
 359   0.0000      26.414417       718.7728 
 360   0.0000      27.945293       760.4301 
 361   0.0000      31.962068       869.7321 
 362   0.0000      32.050505       872.1386 
 363   0.0000      32.896115       895.1488 
 364   0.0000      32.914173       895.6402 
 365   0.0000      34.427748       936.8267 
 366   0.0000      47.761203      1299.6484 
 367   0.0000      47.883075      1302.9647 
 368   0.0000      48.013671      1306.5184 
 369   0.0000      48.069441      1308.0360 
 370   0.0000      48.952037      1332.0526 
 371   0.0000      74.272600      2021.0602 
 372   0.0000     104.191684      2835.1998 

                 SPIN DOWN ORBITALS
  NO   OCC          E(Eh)            E(eV) 
   0   1.0000     -13.939711      -379.3188 
   1   1.0000      -9.860891      -268.3285 
   2   1.0000      -1.912431       -52.0399 
   3   1.0000      -0.778489       -21.1838 
   4   1.0000      -0.342769        -9.3272 
   5   1.0000      -0.288338        -7.8461 
   6   1.0000      -0.269414        -7.3311 
   7   1.0000      -0.216231        -5.8839 
   8   0.0000      -0.066776        -1.8171 
   9   0.0000      -0.028318        -0.7706 
  10   0.0000      -0.009883        -0.2689 
  11   0.0000       0.003099         0.0843 
  12   0.0000       0.008931         0.2430 
  13   0.0000       0.011529         0.3137 
  14   0.0000       0.018379         0.5001 
  15   0.0000       0.019331         0.5260 
  16   0.0000       0.029699         0.8082 
  17   0.0000       0.032895         0.8951 
  18   0.0000       0.037413         1.0181 
  19   0.0000       0.040032         1.0893 
  20   0.0000       0.041976         1.1422 
  21   0.0000       0.042772         1.1639 
  22   0.0000       0.046933         1.2771 
  23   0.0000       0.053917         1.4672 
  24   0.0000       0.065173         1.7734 
  25   0.0000       0.067903         1.8477 
  26   0.0000       0.072072         1.9612 
  27   0.0000       0.075349         2.0504 
  28   0.0000       0.079706         2.1689 
  29   0.0000       0.083443         2.2706 
  30   0.0000       0.088258         2.4016 
  31   0.0000       0.095351         2.5946 
  32   0.0000       0.098019         2.6672 
  33   0.0000       0.098256         2.6737 
  34   0.0000       0.105650         2.8749 
  35   0.0000       0.106711         2.9038 
  36   0.0000       0.114241         3.1087 
  37   0.0000       0.115819         3.1516 
  38   0.0000       0.127155         3.4601 
  39   0.0000       0.134818         3.6686 
  40   0.0000       0.135939         3.6991 
  41   0.0000       0.140255         3.8165 
  42   0.0000       0.140443         3.8216 
  43   0.0000       0.151276         4.1164 
  44   0.0000       0.158291         4.3073 
  45   0.0000       0.159055         4.3281 
  46   0.0000       0.160210         4.3595 
  47   0.0000       0.161265         4.3882 
  48   0.0000       0.163509         4.4493 
  49   0.0000       0.164340         4.4719 
  50   0.0000       0.169414         4.6100 
  51   0.0000       0.170966         4.6522 
  52   0.0000       0.176672         4.8075 
  53   0.0000       0.179246         4.8775 
  54   0.0000       0.184714         5.0263 
  55   0.0000       0.194128         5.2825 
  56   0.0000       0.201084         5.4718 
  57   0.0000       0.206037         5.6065 
  58   0.0000       0.209223         5.6932 
  59   0.0000       0.216805         5.8996 
  60   0.0000       0.229281         6.2391 
  61   0.0000       0.238414         6.4876 
  62   0.0000       0.256629         6.9832 
  63   0.0000       0.265773         7.2321 
  64   0.0000       0.267789         7.2869 
  65   0.0000       0.270593         7.3632 
  66   0.0000       0.272257         7.4085 
  67   0.0000       0.281463         7.6590 
  68   0.0000       0.281969         7.6728 
  69   0.0000       0.290190         7.8965 
  70   0.0000       0.296564         8.0699 
  71   0.0000       0.304816         8.2945 
  72   0.0000       0.309382         8.4187 
  73   0.0000       0.321187         8.7399 
  74   0.0000       0.327933         8.9235 
  75   0.0000       0.333674         9.0797 
  76   0.0000       0.338898         9.2219 
  77   0.0000       0.342453         9.3186 
  78   0.0000       0.356268         9.6946 
  79   0.0000       0.372199        10.1280 
  80   0.0000       0.378230        10.2922 
  81   0.0000       0.382649        10.4124 
  82   0.0000       0.386912        10.5284 
  83   0.0000       0.399190        10.8625 
  84   0.0000       0.399294        10.8653 
  85   0.0000       0.409654        11.1472 
  86   0.0000       0.420161        11.4332 
  87   0.0000       0.424506        11.5514 
  88   0.0000       0.430592        11.7170 
  89   0.0000       0.436130        11.8677 
  90   0.0000       0.447542        12.1782 
  91   0.0000       0.461729        12.5643 
  92   0.0000       0.473485        12.8842 
  93   0.0000       0.474618        12.9150 
  94   0.0000       0.490559        13.3488 
  95   0.0000       0.497669        13.5423 
  96   0.0000       0.506536        13.7835 
  97   0.0000       0.522260        14.2114 
  98   0.0000       0.534993        14.5579 
  99   0.0000       0.535499        14.5717 
 100   0.0000       0.538679        14.6582 
 101   0.0000       0.557020        15.1573 
 102   0.0000       0.564906        15.3719 
 103   0.0000       0.575451        15.6588 
 104   0.0000       0.575958        15.6726 
 105   0.0000       0.579839        15.7782 
 106   0.0000       0.592231        16.1154 
 107   0.0000       0.593099        16.1390 
 108   0.0000       0.612432        16.6651 
 109   0.0000       0.617327        16.7983 
 110   0.0000       0.626125        17.0377 
 111   0.0000       0.629405        17.1270 
 112   0.0000       0.634169        17.2566 
 113   0.0000       0.644733        17.5441 
 114   0.0000       0.652025        17.7425 
 115   0.0000       0.659918        17.9573 
 116   0.0000       0.666553        18.1378 
 117   0.0000       0.670895        18.2560 
 118   0.0000       0.677287        18.4299 
 119   0.0000       0.683917        18.6103 
 120   0.0000       0.684483        18.6257 
 121   0.0000       0.690482        18.7890 
 122   0.0000       0.690691        18.7947 
 123   0.0000       0.708555        19.2808 
 124   0.0000       0.735307        20.0087 
 125   0.0000       0.735916        20.0253 
 126   0.0000       0.760981        20.7074 
 127   0.0000       0.777617        21.1600 
 128   0.0000       0.790632        21.5142 
 129   0.0000       0.794410        21.6170 
 130   0.0000       0.795606        21.6495 
 131   0.0000       0.822684        22.3864 
 132   0.0000       0.835259        22.7286 
 133   0.0000       0.838319        22.8118 
 134   0.0000       0.842494        22.9254 
 135   0.0000       0.858199        23.3528 
 136   0.0000       0.874996        23.8099 
 137   0.0000       0.901442        24.5295 
 138   0.0000       0.908796        24.7296 
 139   0.0000       0.915957        24.9245 
 140   0.0000       0.924722        25.1630 
 141   0.0000       0.938104        25.5271 
 142   0.0000       0.944951        25.7134 
 143   0.0000       0.957409        26.0524 
 144   0.0000       0.966091        26.2887 
 145   0.0000       0.978037        26.6138 
 146   0.0000       0.997332        27.1388 
 147   0.0000       1.000020        27.2119 
 148   0.0000       1.012651        27.5556 
 149   0.0000       1.033339        28.1186 
 150   0.0000       1.036181        28.1959 
 151   0.0000       1.052446        28.6385 
 152   0.0000       1.056918        28.7602 
 153   0.0000       1.061147        28.8753 
 154   0.0000       1.092149        29.7189 
 155   0.0000       1.094313        29.7778 
 156   0.0000       1.095722        29.8161 
 157   0.0000       1.110512        30.2186 
 158   0.0000       1.132789        30.8247 
 159   0.0000       1.160034        31.5661 
 160   0.0000       1.163497        31.6604 
 161   0.0000       1.191449        32.4210 
 162   0.0000       1.199467        32.6392 
 163   0.0000       1.210726        32.9455 
 164   0.0000       1.244560        33.8662 
 165   0.0000       1.255063        34.1520 
 166   0.0000       1.260540        34.3010 
 167   0.0000       1.300637        35.3921 
 168   0.0000       1.339769        36.4570 
 169   0.0000       1.354927        36.8694 
 170   0.0000       1.406270        38.2666 
 171   0.0000       1.471770        40.0489 
 172   0.0000       1.485066        40.4107 
 173   0.0000       1.526265        41.5318 
 174   0.0000       1.570994        42.7489 
 175   0.0000       1.578680        42.9581 
 176   0.0000       1.615751        43.9668 
 177   0.0000       1.620061        44.0841 
 178   0.0000       1.655017        45.0353 
 179   0.0000       1.696867        46.1741 
 180   0.0000       1.755181        47.7609 
 181   0.0000       1.786234        48.6059 
 182   0.0000       1.804749        49.1097 
 183   0.0000       1.837410        49.9985 
 184   0.0000       1.867031        50.8045 
 185   0.0000       1.960502        53.3480 
 186   0.0000       1.996550        54.3289 
 187   0.0000       2.064510        56.1782 
 188   0.0000       2.090192        56.8770 
 189   0.0000       2.101842        57.1940 
 190   0.0000       2.122437        57.7544 
 191   0.0000       2.170703        59.0678 
 192   0.0000       2.192649        59.6650 
 193   0.0000       2.193543        59.6893 
 194   0.0000       2.220060        60.4109 
 195   0.0000       2.221946        60.4622 
 196   0.0000       2.276512        61.9470 
 197   0.0000       2.306131        62.7530 
 198   0.0000       2.345800        63.8325 
 199   0.0000       2.410157        65.5837 
 200   0.0000       2.459662        66.9308 
 201   0.0000       2.474852        67.3442 
 202   0.0000       2.493387        67.8485 
 203   0.0000       2.546640        69.2976 
 204   0.0000       2.555882        69.5491 
 205   0.0000       2.611993        71.0759 
 206   0.0000       2.614009        71.1308 
 207   0.0000       2.685418        73.0740 
 208   0.0000       2.699541        73.4582 
 209   0.0000       2.739605        74.5484 
 210   0.0000       2.748775        74.7980 
 211   0.0000       2.753129        74.9164 
 212   0.0000       2.829569        76.9965 
 213   0.0000       2.886181        78.5370 
 214   0.0000       2.916201        79.3539 
 215   0.0000       3.001112        81.6644 
 216   0.0000       3.036382        82.6241 
 217   0.0000       3.067815        83.4795 
 218   0.0000       3.072989        83.6203 
 219   0.0000       3.077677        83.7478 
 220   0.0000       3.118297        84.8532 
 221   0.0000       3.180706        86.5514 
 222   0.0000       3.199603        87.0656 
 223   0.0000       3.248144        88.3865 
 224   0.0000       3.323515        90.4374 
 225   0.0000       3.348919        91.1287 
 226   0.0000       3.448810        93.8469 
 227   0.0000       3.469197        94.4016 
 228   0.0000       3.544848        96.4602 
 229   0.0000       3.789207       103.1096 
 230   0.0000       3.855383       104.9103 
 231   0.0000       4.055239       110.3487 
 232   0.0000       4.126256       112.2811 
 233   0.0000       4.173009       113.5534 
 234   0.0000       4.183558       113.8404 
 235   0.0000       4.238204       115.3274 
 236   0.0000       4.252929       115.7281 
 237   0.0000       4.355498       118.5191 
 238   0.0000       4.438633       120.7814 
 239   0.0000       4.537028       123.4588 
 240   0.0000       4.550663       123.8298 
 241   0.0000       4.602999       125.2540 
 242   0.0000       4.617079       125.6371 
 243   0.0000       4.748722       129.2193 
 244   0.0000       4.768146       129.7479 
 245   0.0000       4.804792       130.7450 
 246   0.0000       4.831701       131.4773 
 247   0.0000       4.846892       131.8906 
 248   0.0000       4.872334       132.5829 
 249   0.0000       4.901521       133.3772 
 250   0.0000       4.965201       135.1100 
 251   0.0000       5.053197       137.5045 
 252   0.0000       5.139008       139.8395 
 253   0.0000       5.239976       142.5870 
 254   0.0000       5.256651       143.0407 
 255   0.0000       5.270886       143.4281 
 256   0.0000       5.328187       144.9873 
 257   0.0000       5.343458       145.4029 
 258   0.0000       5.407646       147.1495 
 259   0.0000       5.437478       147.9613 
 260   0.0000       5.543401       150.8436 
 261   0.0000       5.659603       154.0056 
 262   0.0000       5.668280       154.2417 
 263   0.0000       5.832836       158.7195 
 264   0.0000       5.923733       161.1930 
 265   0.0000       6.033863       164.1898 
 266   0.0000       6.044190       164.4708 
 267   0.0000       6.093566       165.8144 
 268   0.0000       6.276187       170.7837 
 269   0.0000       6.318071       171.9235 
 270   0.0000       6.414235       174.5402 
 271   0.0000       6.507891       177.0887 
 272   0.0000       6.655844       181.1147 
 273   0.0000       6.657445       181.1583 
 274   0.0000       6.815300       185.4537 
 275   0.0000       6.833615       185.9521 
 276   0.0000       6.905367       187.9046 
 277   0.0000       7.070711       192.4038 
 278   0.0000       7.102712       193.2746 
 279   0.0000       7.329367       199.4422 
 280   0.0000       7.858694       213.8459 
 281   0.0000       8.128078       221.1763 
 282   0.0000       8.270100       225.0409 
 283   0.0000       8.334577       226.7954 
 284   0.0000       9.175575       249.6801 
 285   0.0000       9.437990       256.8208 
 286   0.0000       9.782423       266.1933 
 287   0.0000      10.174383       276.8590 
 288   0.0000      10.189270       277.2641 
 289   0.0000      10.233263       278.4612 
 290   0.0000      10.274708       279.5890 
 291   0.0000      10.342702       281.4392 
 292   0.0000      10.431742       283.8621 
 293   0.0000      10.432272       283.8766 
 294   0.0000      10.448303       284.3128 
 295   0.0000      10.523379       286.3557 
 296   0.0000      10.625910       289.1457 
 297   0.0000      10.632123       289.3148 
 298   0.0000      10.735337       292.1234 
 299   0.0000      10.841953       295.0245 
 300   0.0000      10.844613       295.0969 
 301   0.0000      10.895981       296.4947 
 302   0.0000      11.051031       300.7139 
 303   0.0000      11.090887       301.7984 
 304   0.0000      11.386842       309.8517 
 305   0.0000      11.475240       312.2572 
 306   0.0000      11.483348       312.4778 
 307   0.0000      11.509421       313.1873 
 308   0.0000      11.526049       313.6397 
 309   0.0000      11.569555       314.8236 
 310   0.0000      11.577386       315.0367 
 311   0.0000      11.584907       315.2413 
 312   0.0000      11.632419       316.5342 
 313   0.0000      11.668187       317.5075 
 314   0.0000      11.722964       318.9981 
 315   0.0000      11.723335       319.0082 
 316   0.0000      11.835910       322.0715 
 317   0.0000      11.915123       324.2270 
 318   0.0000      11.950173       325.1807 
 319   0.0000      12.098706       329.2225 
 320   0.0000      12.123128       329.8871 
 321   0.0000      12.124897       329.9352 
 322   0.0000      12.269722       333.8761 
 323   0.0000      12.459340       339.0359 
 324   0.0000      12.507691       340.3516 
 325   0.0000      12.651588       344.2672 
 326   0.0000      12.725072       346.2668 
 327   0.0000      12.846452       349.5697 
 328   0.0000      12.965028       352.7963 
 329   0.0000      12.970082       352.9339 
 330   0.0000      13.537012       368.3608 
 331   0.0000      13.705094       372.9346 
 332   0.0000      13.768689       374.6651 
 333   0.0000      14.528016       395.3274 
 334   0.0000      14.562269       396.2595 
 335   0.0000      14.646238       398.5444 
 336   0.0000      14.750732       401.3878 
 337   0.0000      14.761686       401.6859 
 338   0.0000      15.005557       408.3220 
 339   0.0000      15.062976       409.8844 
 340   0.0000      15.374751       418.3683 
 341   0.0000      15.431337       419.9080 
 342   0.0000      15.593730       424.3270 
 343   0.0000      15.809877       430.2086 
 344   0.0000      15.890595       432.4051 
 345   0.0000      16.020401       435.9373 
 346   0.0000      16.728466       455.2047 
 347   0.0000      16.888968       459.5722 
 348   0.0000      16.970819       461.7995 
 349   0.0000      17.141940       466.4559 
 350   0.0000      17.685603       481.2497 
 351   0.0000      17.727932       482.4016 
 352   0.0000      17.770956       483.5723 
 353   0.0000      18.652682       507.5653 
 354   0.0000      19.070426       518.9327 
 355   0.0000      19.119367       520.2644 
 356   0.0000      21.469593       584.2173 
 357   0.0000      24.012773       653.4208 
 358   0.0000      26.138177       711.2560 
 359   0.0000      26.414417       718.7728 
 360   0.0000      27.945293       760.4301 
 361   0.0000      31.962068       869.7321 
 362   0.0000      32.050505       872.1386 
 363   0.0000      32.896115       895.1488 
 364   0.0000      32.914173       895.6402 
 365   0.0000      34.427748       936.8267 
 366   0.0000      47.761203      1299.6484 
 367   0.0000      47.883075      1302.9647 
 368   0.0000      48.013671      1306.5184 
 369   0.0000      48.069441      1308.0360 
 370   0.0000      48.952037      1332.0526 
 371   0.0000      74.272600      2021.0602 
 372   0.0000     104.191684      2835.1998 

                    ********************************
                    * MULLIKEN POPULATION ANALYSIS *
                    ********************************

--------------------------------------------
MULLIKEN ATOMIC CHARGES AND SPIN POPULATIONS
--------------------------------------------
   0 Li:    0.707872   -0.000000
   1 C :   -0.387145   -0.000000
   2 N :   -0.320727    0.000000
Sum of atomic charges         :    0.0000000
Sum of atomic spin populations:   -0.0000000

-----------------------------------------------------
MULLIKEN REDUCED ORBITAL CHARGES AND SPIN POPULATIONS
-----------------------------------------------------
CHARGE
  0 Lis       :     2.063137  s :     2.063137
      pz      :     0.052055  p :     0.173487
      px      :     0.065360
      py      :     0.056072
      dz2     :     0.002949  d :     0.046112
      dxz     :     0.014152
      dyz     :     0.003553
      dx2y2   :     0.013346
      dxy     :     0.012112
      f0      :     0.001285  f :     0.009032
      f+1     :     0.000916
      f-1     :     0.000335
      f+2     :     0.000542
      f-2     :     0.001162
      f+3     :     0.002580
      f-3     :     0.002213
      g0      :     0.000060  g :     0.000361
      g+1     :    -0.000013
      g-1     :     0.000016
      g+2     :     0.000078
      g-2     :     0.000051
      g+3     :    -0.000005
      g-3     :     0.000034
      g+4     :     0.000034
      g-4     :     0.000107
  1 C s       :     3.826747  s :     3.826747
      pz      :     0.701141  p :     2.487718
      px      :     0.793700
      py      :     0.992877
      dz2     :     0.005408  d :     0.066629
      dxz     :     0.008336
      dyz     :     0.016735
      dx2y2   :     0.019876
      dxy     :     0.016273
      f0      :     0.001062  f :     0.005456
      f+1     :     0.000371
      f-1     :     0.000353
      f+2     :     0.000072
      f-2     :     0.001228
      f+3     :     0.000175
      f-3     :     0.002196
      g0      :     0.000002  g :     0.000610
      g+1     :     0.000043
      g-1     :     0.000143
      g+2     :    -0.000012
      g-2     :     0.000060
      g+3     :     0.000179
      g-3     :     0.000007
      g+4     :    -0.000076
      g-4     :     0.000264
      h0      :     0.000003  h :    -0.000015
      h+1     :    -0.000004
      h-1     :     0.000003
      h+2     :     0.000001
      h-2     :     0.000008
      h+3     :    -0.000023
      h-3     :     0.000012
      h+4     :     0.000006
      h-4     :     0.000002
      h+5     :    -0.000025
      h-5     :     0.000003
  2 N s       :     3.854979  s :     3.854979
      pz      :     1.179445  p :     3.429664
      px      :     1.134987
      py      :     1.115232
      dz2     :     0.005025  d :     0.034403
      dxz     :     0.001515
      dyz     :     0.015439
      dx2y2   :     0.009552
      dxy     :     0.002872
      f0      :     0.000817  f :     0.001059
      f+1     :     0.000528
      f-1     :     0.000377
      f+2     :     0.000333
      f-2     :     0.000472
      f+3     :    -0.003093
      f-3     :     0.001626
      g0      :     0.000026  g :     0.000415
      g+1     :     0.000052
      g-1     :     0.000089
      g+2     :     0.000124
      g-2     :     0.000003
      g+3     :     0.000119
      g-3     :    -0.000034
      g+4     :     0.000286
      g-4     :    -0.000249
      h0      :    -0.000000  h :     0.000207
      h+1     :    -0.000005
      h-1     :     0.000013
      h+2     :     0.000004
      h-2     :     0.000012
      h+3     :    -0.000007
      h-3     :     0.000045
      h+4     :    -0.000009
      h-4     :     0.000004
      h+5     :     0.000100
      h-5     :     0.000051

SPIN
  0 Lis       :    -0.000000  s :    -0.000000
      pz      :    -0.000000  p :    -0.000000
      px      :    -0.000000
      py      :    -0.000000
      dz2     :    -0.000000  d :    -0.000000
      dxz     :     0.000000
      dyz     :    -0.000000
      dx2y2   :     0.000000
      dxy     :    -0.000000
      f0      :    -0.000000  f :    -0.000000
      f+1     :    -0.000000
      f-1     :    -0.000000
      f+2     :     0.000000
      f-2     :    -0.000000
      f+3     :     0.000000
      f-3     :    -0.000000
      g0      :    -0.000000  g :    -0.000000
      g+1     :    -0.000000
      g-1     :    -0.000000
      g+2     :    -0.000000
      g-2     :    -0.000000
      g+3     :    -0.000000
      g-3     :    -0.000000
      g+4     :    -0.000000
      g-4     :    -0.000000
  1 C s       :    -0.000000  s :    -0.000000
      pz      :    -0.000000  p :    -0.000000
      px      :    -0.000000
      py      :    -0.000000
      dz2     :    -0.000000  d :    -0.000000
      dxz     :    -0.000000
      dyz     :    -0.000000
      dx2y2   :    -0.000000
      dxy     :    -0.000000
      f0      :    -0.000000  f :    -0.000000
      f+1     :    -0.000000
      f-1     :    -0.000000
      f+2     :     0.000000
      f-2     :    -0.000000
      f+3     :    -0.000000
      f-3     :    -0.000000
      g0      :    -0.000000  g :    -0.000000
      g+1     :    -0.000000
      g-1     :    -0.000000
      g+2     :     0.000000
      g-2     :     0.000000
      g+3     :    -0.000000
      g-3     :    -0.000000
      g+4     :    -0.000000
      g-4     :     0.000000
      h0      :    -0.000000  h :     0.000000
      h+1     :    -0.000000
      h-1     :    -0.000000
      h+2     :     0.000000
      h-2     :    -0.000000
      h+3     :     0.000000
      h-3     :     0.000000
      h+4     :    -0.000000
      h-4     :    -0.000000
      h+5     :    -0.000000
      h-5     :     0.000000
  2 N s       :     0.000000  s :     0.000000
      pz      :     0.000000  p :     0.000000
      px      :     0.000000
      py      :     0.000000
      dz2     :     0.000000  d :     0.000000
      dxz     :     0.000000
      dyz     :     0.000000
      dx2y2   :    -0.000000
      dxy     :     0.000000
      f0      :     0.000000  f :     0.000000
      f+1     :     0.000000
      f-1     :     0.000000
      f+2     :     0.000000
      f-2     :     0.000000
      f+3     :     0.000000
      f-3     :     0.000000
      g0      :     0.000000  g :     0.000000
      g+1     :    -0.000000
      g-1     :     0.000000
      g+2     :     0.000000
      g-2     :     0.000000
      g+3     :     0.000000
      g-3     :     0.000000
      g+4     :     0.000000
      g-4     :    -0.000000
      h0      :    -0.000000  h :    -0.000000
      h+1     :    -0.000000
      h-1     :    -0.000000
      h+2     :    -0.000000
      h-2     :     0.000000
      h+3     :     0.000000
      h-3     :     0.000000
      h+4     :    -0.000000
      h-4     :     0.000000
      h+5     :    -0.000000
      h-5     :     0.000000


                     *******************************
                     * LOEWDIN POPULATION ANALYSIS *
                     *******************************

-------------------------------------------
LOEWDIN ATOMIC CHARGES AND SPIN POPULATIONS
-------------------------------------------
   0 Li:    0.106590   -0.000000
   1 C :   -0.113627   -0.000000
   2 N :    0.007037    0.000000

----------------------------------------------------
LOEWDIN REDUCED ORBITAL CHARGES AND SPIN POPULATIONS
----------------------------------------------------
CHARGE
  0 Lis       :     2.066620  s :     2.066620
      pz      :     0.050696  p :     0.351098
      px      :     0.210263
      py      :     0.090139
      dz2     :     0.041319  d :     0.275181
      dxz     :     0.048408
      dyz     :     0.012261
      dx2y2   :     0.085526
      dxy     :     0.087667
      f0      :     0.020112  f :     0.175593
      f+1     :     0.020568
      f-1     :     0.010314
      f+2     :     0.007392
      f-2     :     0.015602
      f+3     :     0.058214
      f-3     :     0.043390
      g0      :     0.001882  g :     0.024917
      g+1     :     0.003140
      g-1     :     0.000854
      g+2     :     0.002342
      g-2     :     0.002678
      g+3     :     0.000074
      g-3     :     0.001336
      g+4     :     0.005798
      g-4     :     0.006813
  1 C s       :     3.006842  s :     3.006842
      pz      :     0.640173  p :     2.517651
      px      :     0.813528
      py      :     1.063950
      dz2     :     0.051754  d :     0.408867
      dxz     :     0.035428
      dyz     :     0.060419
      dx2y2   :     0.121987
      dxy     :     0.139279
      f0      :     0.015315  f :     0.129699
      f+1     :     0.008777
      f-1     :     0.013731
      f+2     :     0.003186
      f-2     :     0.019371
      f+3     :     0.033538
      f-3     :     0.035781
      g0      :     0.002217  g :     0.038263
      g+1     :     0.002265
      g-1     :     0.004027
      g+2     :     0.003463
      g-2     :     0.003207
      g+3     :     0.003943
      g-3     :     0.000134
      g+4     :     0.011038
      g-4     :     0.007970
      h0      :     0.000441  h :     0.012304
      h+1     :     0.001545
      h-1     :     0.000302
      h+2     :     0.000038
      h-2     :     0.000475
      h+3     :     0.002506
      h-3     :     0.000418
      h+4     :     0.000106
      h-4     :     0.000285
      h+5     :     0.004782
      h-5     :     0.001406
  2 N s       :     3.105443  s :     3.105443
      pz      :     0.980360  p :     3.441331
      px      :     1.138616
      py      :     1.322355
      dz2     :     0.045614  d :     0.287297
      dxz     :     0.010401
      dyz     :     0.036706
      dx2y2   :     0.060696
      dxy     :     0.133879
      f0      :     0.008960  f :     0.098935
      f+1     :     0.009525
      f-1     :     0.013744
      f+2     :     0.001841
      f-2     :     0.009283
      f+3     :     0.028625
      f-3     :     0.026958
      g0      :     0.003678  g :     0.039899
      g+1     :     0.000605
      g-1     :     0.002873
      g+2     :     0.001451
      g-2     :     0.008154
      g+3     :     0.001891
      g-3     :     0.000356
      g+4     :     0.015873
      g-4     :     0.005018
      h0      :     0.000378  h :     0.020058
      h+1     :     0.002255
      h-1     :     0.001922
      h+2     :     0.000064
      h-2     :     0.000218
      h+3     :     0.001947
      h-3     :     0.003575
      h+4     :     0.000348
      h-4     :     0.000235
      h+5     :     0.006439
      h-5     :     0.002678

SPIN
  0 Lis       :    -0.000000  s :    -0.000000
      pz      :     0.000000  p :    -0.000000
      px      :    -0.000000
      py      :    -0.000000
      dz2     :     0.000000  d :     0.000000
      dxz     :     0.000000
      dyz     :    -0.000000
      dx2y2   :    -0.000000
      dxy     :     0.000000
      f0      :     0.000000  f :    -0.000000
      f+1     :    -0.000000
      f-1     :     0.000000
      f+2     :     0.000000
      f-2     :    -0.000000
      f+3     :     0.000000
      f-3     :    -0.000000
      g0      :     0.000000  g :    -0.000000
      g+1     :    -0.000000
      g-1     :     0.000000
      g+2     :    -0.000000
      g-2     :     0.000000
      g+3     :    -0.000000
      g-3     :    -0.000000
      g+4     :    -0.000000
      g-4     :    -0.000000
  1 C s       :    -0.000000  s :    -0.000000
      pz      :     0.000000  p :    -0.000000
      px      :    -0.000000
      py      :    -0.000000
      dz2     :     0.000000  d :     0.000000
      dxz     :    -0.000000
      dyz     :    -0.000000
      dx2y2   :     0.000000
      dxy     :     0.000000
      f0      :    -0.000000  f :    -0.000000
      f+1     :    -0.000000
      f-1     :     0.000000
      f+2     :     0.000000
      f-2     :    -0.000000
      f+3     :    -0.000000
      f-3     :    -0.000000
      g0      :     0.000000  g :     0.000000
      g+1     :    -0.000000
      g-1     :    -0.000000
      g+2     :    -0.000000
      g-2     :     0.000000
      g+3     :    -0.000000
      g-3     :    -0.000000
      g+4     :     0.000000
      g-4     :     0.000000
      h0      :     0.000000  h :     0.000000
      h+1     :    -0.000000
      h-1     :     0.000000
      h+2     :     0.000000
      h-2     :    -0.000000
      h+3     :     0.000000
      h-3     :    -0.000000
      h+4     :     0.000000
      h-4     :    -0.000000
      h+5     :     0.000000
      h-5     :     0.000000
  2 N s       :     0.000000  s :     0.000000
      pz      :    -0.000000  p :    -0.000000
      px      :     0.000000
      py      :     0.000000
      dz2     :     0.000000  d :     0.000000
      dxz     :     0.000000
      dyz     :     0.000000
      dx2y2   :     0.000000
      dxy     :    -0.000000
      f0      :     0.000000  f :     0.000000
      f+1     :     0.000000
      f-1     :     0.000000
      f+2     :     0.000000
      f-2     :     0.000000
      f+3     :     0.000000
      f-3     :     0.000000
      g0      :    -0.000000  g :    -0.000000
      g+1     :     0.000000
      g-1     :     0.000000
      g+2     :    -0.000000
      g-2     :    -0.000000
      g+3     :     0.000000
      g-3     :     0.000000
      g+4     :    -0.000000
      g-4     :    -0.000000
      h0      :    -0.000000  h :    -0.000000
      h+1     :    -0.000000
      h-1     :    -0.000000
      h+2     :    -0.000000
      h-2     :     0.000000
      h+3     :     0.000000
      h-3     :     0.000000
      h+4     :    -0.000000
      h-4     :     0.000000
      h+5     :    -0.000000
      h-5     :    -0.000000


                      *****************************
                      * MAYER POPULATION ANALYSIS *
                      *****************************

  NA   - Mulliken gross atomic population
  ZA   - Total nuclear charge
  QA   - Mulliken gross atomic charge
  VA   - Mayer's total valence
  BVA  - Mayer's bonded valence
  FA   - Mayer's free valence

  ATOM       NA         ZA         QA         VA         BVA        FA
  0 Li     2.2921     3.0000     0.7079     0.4781     0.4781    -0.0000
  1 C      6.3871     6.0000    -0.3871     2.5848     2.5848     0.0000
  2 N      7.3207     7.0000    -0.3207     2.8114     2.8114     0.0000

  Mayer bond orders larger than 0.1
B(  0-Li,  1-C ) :   0.1257 B(  0-Li,  2-N ) :   0.3524 B(  1-C ,  2-N ) :   2.4591 


-------
TIMINGS
-------

Total SCF time: 0 days 0 hours 52 min 21 sec 

Total time                  ....    3141.915 sec
Sum of individual times     ....    3141.317 sec  (100.0%)

Fock matrix formation       ....    3132.995 sec  ( 99.7%)
  XC integration            ....     114.473 sec  (  3.7% of F)
    Basis function eval.    ....       8.165 sec  (  7.1% of XC)
    Density eval.           ....      24.411 sec  ( 21.3% of XC)
    XC-Functional eval.     ....       0.983 sec  (  0.9% of XC)
    XC-Potential eval.      ....      80.225 sec  ( 70.1% of XC)
Diagonalization             ....       1.101 sec  (  0.0%)
Density matrix formation    ....       0.022 sec  (  0.0%)
Population analysis         ....       0.111 sec  (  0.0%)
Initial guess               ....       4.389 sec  (  0.1%)
Orbital Transformation      ....       0.000 sec  (  0.0%)
Orbital Orthonormalization  ....       0.000 sec  (  0.0%)
DIIS solution               ....       0.493 sec  (  0.0%)
Grid generation             ....       2.207 sec  (  0.1%)

-------------------------   --------------------
FINAL SINGLE POINT ENERGY      -100.284855271320
-------------------------   --------------------


                            ***************************************
                            *     ORCA property calculations      *
                            ***************************************

                                    ---------------------
                                    Active property flags
                                    ---------------------
   (+) Dipole Moment
   (+) Polarizability


------------------------------------------------------------------------------
                       ORCA ELECTRIC PROPERTIES CALCULATION
------------------------------------------------------------------------------

Dipole Moment Calculation                       ... on
Quadrupole Moment Calculation                   ... off
Polarizability Calculation                      ... Analytic (CP-SCF)
GBWName                                         ... licn_pbe.gbw
Electron density file                           ... licn_pbe.scfp.tmp
The origin for moment calculation is the CENTER OF MASS  = ( 0.079529, -0.023371  0.000000)

-------------
DIPOLE MOMENT
-------------
                                X             Y             Z
Electronic contribution:      3.71932      -1.49219      -0.00000
Nuclear contribution   :     -1.21344       0.53686       0.00000
                        -----------------------------------------
Total Dipole Moment    :      2.50588      -0.95533      -0.00000
                        -----------------------------------------
Magnitude (a.u.)       :      2.68181
Magnitude (Debye)      :      6.81662



--------------------
Rotational spectrum 
--------------------
 
Rotational constants in cm-1:     1.939920     0.831697     0.582124 
Rotational constants in MHz : 58157.349324 24933.635650 17451.642424 

 Dipole components along the rotational axes: 
x,y,z [a.u.] :    -2.672419    -0.224228    -0.000000 
x,y,z [Debye]:    -6.792750    -0.569942    -0.000000 

 
Transforming and storing MO dipole integrals   ... done

                ... starting polarizability calculation

Opening the Dipole integral file               ... (licn_pbe.dmo.tmp) done
Reading Dipole-MO integrals                    ... done
Solving CP-SCF equations                       ... 
------------------------------------------------------------------------------
                           ORCA CP-SCF CALCULATION
------------------------------------------------------------------------------

Input orbitals are from        ... licn_pbe.gbw
Input Perturbation             ... licn_pbe.cpv.tmp
Wavefunction output            ... licn_pbe.cpu.tmp
Perturbation mode              ... Real perturbation (singlet)
Solver                         ... POPLE
Max. number of iterations      ... 200
Convergence tolerance          ... 1.000e-06
Integral handling              ... Direct
Number of perturbations        ... 3
Number of operators            ... 2
Orbital ranges used for CP-SCF:
 Operator 0:  Orbitals   0...  7  to   8...372
 Operator 1:  Orbitals   0...  7  to   8...372
DFT calculation                         ... on
Exchange functional (SCF)               ... PBE
Exchange functional (CP-SCF)            ... PBE
   PBE kappa parameter  XKappa (SCF)    ...  0.804000
   PBE kappa parameter  XKappa (CP-SCF) ...  0.804000
   PBE mue parameter   XMuePBE (SCF)    ...  0.219520
   PBE mue parameter   XMuePBE (CP-SCF) ...  0.219520
Correlation functional (SCF)            ... PBE
Correlation functional (CP-SCF)         ... PBE
   PBE beta parameter CBetaPBE (SCF)    ...  0.066725
   PBE beta parameter CBetaPBE (CP-SCF) ...  0.066725
 LDA part of GGA corr.  LDAOpt (SCF)    ... PW91-LDA
 LDA part of GGA corr.  LDAOpt (CP-SCF) ... PW91-LDA
Variables per vector in CP-SCF ... 5840
Number of vectors sought       ... 3
Recalculating density on grid  ... done
Calculating the xc-kernel      ... done
     CP-SCF ITERATION   0: 
     CP-SCF ITERATION   1:      2.470037099186
     CP-SCF ITERATION   2:      0.059370530869
     CP-SCF ITERATION   3:      0.004237689834
     CP-SCF ITERATION   4:      0.000025670836
     CP-SCF ITERATION   5:      0.000000604432
done
Reading CP-SCF coefficients                    ... done
Doing the polarizability tensor   ... done
Cleaning up                                    ... done

-------------------------
THE POLARIZABILITY TENSOR
-------------------------

The raw cartesian tensor (atomic units):
   28.45093      1.70703      0.00000  
    1.70703     28.13610     -0.00000  
    0.00000     -0.00000     23.07121  
diagonalized tensor: 
   23.07121     26.57925     30.00779  

   -0.00000     -0.67386     -0.73886  
    0.00000      0.73886     -0.67386  
    1.00000     -0.00000      0.00000  

Isotropic polarizability :  26.55275


Timings for individual modules:

Sum of individual times         ...     5112.271 sec (=  85.205 min)
GTO integral calculation        ...        1.101 sec (=   0.018 min)   0.0 %
SCF iterations                  ...     3141.940 sec (=  52.366 min)  61.5 %
Solution of CP-SCF eqns.        ...     1969.229 sec (=  32.820 min)  38.5 %
                             ****ORCA TERMINATED NORMALLY****
TOTAL RUN TIME: 0 days 1 hours 25 minutes 12 seconds 679 msec
