
                                 *****************
                                 * O   R   C   A *
                                 *****************

           --- An Ab Initio, DFT and Semiempirical electronic structure package ---

                  #######################################################
                  #                        -***-                        #
                  #          Department of theory and spectroscopy      #
                  #               Directorship: Frank Neese             #
                  #        Max Planck Institute fuer Kohlenforschung    #
                  #                Kaiser Wilhelm Platz 1               #
                  #                 D-45470 Muelheim/Ruhr               #
                  #                      Germany                        #
                  #                                                     #
                  #                  All rights reserved                #
                  #                        -***-                        #
                  #######################################################


                         Program Version 4.1.2  - RELEASE  -


 With contributions from (in alphabetic order):
   Daniel Aravena         : Magnetic Properties
   Michael Atanasov       : Ab Initio Ligand Field Theory
   Alexander A. Auer      : GIAO ZORA
   Ute Becker             : Parallelization
   Giovanni Bistoni       : ED, Open-shell LED
   Martin Brehm           : Molecular dynamics
   Dmytro Bykov           : SCF Hessian
   Vijay G. Chilkuri      : MRCI spin determinant printing
   Dipayan Datta          : RHF DLPNO-CCSD density
   Achintya Kumar Dutta   : EOM-CC, STEOM-CC
   Dmitry Ganyushin       : Spin-Orbit,Spin-Spin,Magnetic field MRCI
   Miquel Garcia          : C-PCM Hessian
   Yang Guo               : DLPNO-NEVPT2, CIM, IAO-localization
   Andreas Hansen         : Spin unrestricted coupled pair/coupled cluster methods
   Benjamin Helmich-Paris : CASSCF linear response (MC-RPA)
   Lee Huntington         : MR-EOM, pCC
   Robert Izsak           : Overlap fitted RIJCOSX, COSX-SCS-MP3, EOM
   Christian Kollmar      : KDIIS, OOCD, Brueckner-CCSD(T), CCSD density
   Simone Kossmann        : Meta GGA functionals, TD-DFT gradient, OOMP2, MP2 Hessian
   Martin Krupicka        : AUTO-CI
   Lucas Lang             : DCDCAS
   Dagmar Lenk            : GEPOL surface, SMD
   Dimitrios Liakos       : Extrapolation schemes; parallel MDCI
   Dimitrios Manganas     : ROCIS; embedding schemes
   Dimitrios Pantazis     : SARC Basis sets
   Taras Petrenko         : DFT Hessian,TD-DFT gradient, ASA, ECA, R-Raman, ABS, FL, XAS/XES, NRVS
   Peter Pinski           : DLPNO-MP2, DLPNO-MP2 Gradient
   Christoph Reimann      : Effective Core Potentials
   Marius Retegan         : Local ZFS, SOC
   Christoph Riplinger    : Optimizer, TS searches, QM/MM, DLPNO-CCSD(T), (RO)-DLPNO pert. Triples
   Tobias Risthaus        : Range-separated hybrids, TD-DFT gradient, RPA, STAB
   Michael Roemelt        : Restricted open shell CIS
   Masaaki Saitow         : Open-shell DLPNO
   Barbara Sandhoefer     : DKH picture change effects
   Avijit Sen             : IP-ROCIS
   Kantharuban Sivalingam : CASSCF convergence, NEVPT2, FIC-MRCI
   Bernardo de Souza      : ESD, SOC TD-DFT
   Georgi Stoychev        : AutoAux, RI-MP2 NMR
   Willem Van den Heuvel  : Paramagnetic NMR
   Boris Wezisla          : Elementary symmetry handling
   Frank Wennmohs         : Technical directorship


 We gratefully acknowledge several colleagues who have allowed us to
 interface, adapt or use parts of their codes:
   Stefan Grimme, W. Hujo, H. Kruse,             : VdW corrections, initial TS optimization,
                  C. Bannwarth                     DFT functionals, gCP, sTDA/sTD-DF
   Ed Valeev                                     : LibInt (2-el integral package), F12 methods
   Garnet Chan, S. Sharma, J. Yang, R. Olivares  : DMRG
   Ulf Ekstrom                                   : XCFun DFT Library
   Mihaly Kallay                                 : mrcc  (arbitrary order and MRCC methods)
   Andreas Klamt, Michael Diedenhofen            : otool_cosmo (COSMO solvation model)
   Jiri Pittner, Ondrej Demel                    : Mk-CCSD
   Frank Weinhold                                : gennbo (NPA and NBO analysis)
   Christopher J. Cramer and Donald G. Truhlar   : smd solvation model
   Lars Goerigk                                  : TD-DFT with DH, B97 family of functionals
   V. Asgeirsson, H. Jonsson                     : NEB implementation
   FAccTs GmbH                                   : IRC, NEB, NEB-TS, Multilevel


 Your calculation uses the libint2 library for the computation of 2-el integrals
 For citations please refer to: http://libint.valeyev.net

 This ORCA versions uses:
   CBLAS   interface :  Fast vector & matrix operations
   LAPACKE interface :  Fast linear algebra routines
   SCALAPACK package :  Parallel linear algebra routines


----- Orbital basis set information -----
Your calculation utilizes the basis: aug-pc-4
   H, C-F              : F. Jensen, J. Chem. Phys. 115, 9113 (2001).
                         F. Jensen, J. Chem. Phys. 116, 7372 (2002).
                         F. Jensen, J. Chem. Phys. 117, 9234 (2002).
   Si-Cl               : F. Jensen, T. Helgaker, J. Chem. Phys. 121, 3463 (2004).
   He-B, Ne-Mg, Al, Ar : F. Jensen, J. Phys. Chem. A 111, 11198 (2007).
   K, Ca, Ga-Kr        : F. Jensen, J. Chem. Phys. 136, 094110 (2012).
   Sc-Zn               : F. Jensen, J. Chem. Phys. 138, 014107 (2013).

================================================================================
                                        WARNINGS
                       Please study these warnings very carefully!
================================================================================


INFO   : the flag for use of LIBINT has been found!

================================================================================
                                       INPUT FILE
================================================================================
NAME = lih_pbe.inp
|  1> !uks pbe nori aug-pc-4 grid7 nofinalgrid verytightscf
|  2> 
|  3> %maxcore 1500
|  4> 
|  5> %pal nprocs 1 end
|  6> 
|  7> %scf
|  8> 	maxiter 200
|  9> end
| 10> %elprop
| 11> 	dipole true
| 12> 	 polar 1
| 13> 	 maxiter 200
| 14> end
| 15> 
| 16> * xyz 0 1
| 17> Li 0.0000 0.0000 0.0000
| 18> H 0.0000 0.0000 1.5949
| 19> *
| 20> 
| 21>                          ****END OF INPUT****
================================================================================

                       ****************************
                       * Single Point Calculation *
                       ****************************

---------------------------------
CARTESIAN COORDINATES (ANGSTROEM)
---------------------------------
  Li     0.000000    0.000000    0.000000
  H      0.000000    0.000000    1.594900

----------------------------
CARTESIAN COORDINATES (A.U.)
----------------------------
  NO LB      ZA    FRAG     MASS         X           Y           Z
   0 Li    3.0000    0     6.941    0.000000    0.000000    0.000000
   1 H     1.0000    0     1.008    0.000000    0.000000    3.013924

--------------------------------
INTERNAL COORDINATES (ANGSTROEM)
--------------------------------
 Li     0   0   0     0.000000000000     0.00000000     0.00000000
 H      1   0   0     1.594900000000     0.00000000     0.00000000

---------------------------
INTERNAL COORDINATES (A.U.)
---------------------------
 Li     0   0   0     0.000000000000     0.00000000     0.00000000
 H      1   0   0     3.013924210991     0.00000000     0.00000000

---------------------
BASIS SET INFORMATION
---------------------
There are 2 groups of distinct atoms

 Group   1 Type Li  : 31s9p4d3f2g contracted to 9s5p4d3f2g pattern {12121111111/51111/1111/111/11}
 Group   2 Type H   : 12s7p4d3f2g contracted to 8s7p4d3f2g pattern {51111111/1111111/1111/111/11}

Atom   0Li   basis set group =>   1
Atom   1H    basis set group =>   2
------------------------------------------------------------------------------
                           ORCA GTO INTEGRAL CALCULATION
------------------------------------------------------------------------------

                         BASIS SET STATISTICS AND STARTUP INFO

 # of primitive gaussian shells          ...   77
 # of primitive gaussian functions       ...  209
 # of contracted shells                  ...   47
 # of contracted basis functions         ...  171
 Highest angular momentum                ...    4
 Maximum contraction depth               ...   12
 Integral package used                   ... LIBINT
 Integral threshhold            Thresh   ...  1.000e-12
 Primitive cut-off              TCut     ...  1.000e-14


------------------------------ INTEGRAL EVALUATION ----------------------------


 * One electron integrals 
 Pre-screening matrix                    ... done
 Shell pair data                         ... done (   0.000 sec)

-------------------------------------------------------------------------------
                                 ORCA SCF
-------------------------------------------------------------------------------

------------
SCF SETTINGS
------------
Hamiltonian:
 Density Functional     Method          .... DFT(GTOs)
 Exchange Functional    Exchange        .... PBE
   PBE kappa parameter   XKappa         ....  0.804000
   PBE mue parameter    XMuePBE         ....  0.219520
 Correlation Functional Correlation     .... PBE
   PBE beta parameter  CBetaPBE         ....  0.066725
 LDA part of GGA corr.  LDAOpt          .... PW91-LDA
 Gradients option       PostSCFGGA      .... off
   Density functional embedding theory  .... OFF
   NL short-range parameter             ....  6.400000


General Settings:
 Integral files         IntName         .... lih_pbe
 Hartree-Fock type      HFTyp           .... UHF
 Total Charge           Charge          ....    0
 Multiplicity           Mult            ....    1
 Number of Electrons    NEL             ....    4
 Basis Dimension        Dim             ....  171
 Nuclear Repulsion      ENuc            ....      0.9953800394 Eh

Convergence Acceleration:
 DIIS                   CNVDIIS         .... on
   Start iteration      DIISMaxIt       ....    12
   Startup error        DIISStart       ....  0.200000
   # of expansion vecs  DIISMaxEq       ....     5
   Bias factor          DIISBfac        ....   1.050
   Max. coefficient     DIISMaxC        ....  10.000
 Newton-Raphson         CNVNR           .... off
 SOSCF                  CNVSOSCF        .... off
 Level Shifting         CNVShift        .... on
   Level shift para.    LevelShift      ....    0.2500
   Turn off err/grad.   ShiftErr        ....    0.0010
 Zerner damping         CNVZerner       .... off
 Static damping         CNVDamp         .... on
   Fraction old density DampFac         ....    0.7000
   Max. Damping (<1)    DampMax         ....    0.9800
   Min. Damping (>=0)   DampMin         ....    0.0000
   Turn off err/grad.   DampErr         ....    0.1000
 Fernandez-Rico         CNVRico         .... off

SCF Procedure:
 Maximum # iterations   MaxIter         ....   200
 SCF integral mode      SCFMode         .... Direct
   Integral package                     .... LIBINT
 Reset frequency        DirectResetFreq ....    20
 Integral Threshold     Thresh          ....  1.000e-12 Eh
 Primitive CutOff       TCut            ....  1.000e-14 Eh

Convergence Tolerance:
 Convergence Check Mode ConvCheckMode   .... Total+1el-Energy
 Convergence forced     ConvForced      .... 0
 Energy Change          TolE            ....  1.000e-09 Eh
 1-El. energy change                    ....  1.000e-06 Eh
 DIIS Error             TolErr          ....  1.000e-08


Diagonalization of the overlap matrix:
Smallest eigenvalue                        ... 1.234e-05
Time for diagonalization                   ...    0.005 sec
Threshold for overlap eigenvalues          ... 1.000e-08
Number of eigenvalues below threshold      ... 0
Time for construction of square roots      ...    0.006 sec
Total time needed                          ...    0.010 sec

-------------------
DFT GRID GENERATION
-------------------

General Integration Accuracy     IntAcc      ...  5.670
Radial Grid Type                 RadialGrid  ... Gauss-Chebyshev
Angular Grid (max. acc.)         AngularGrid ... Lebedev-770
Angular grid pruning method      GridPruning ... 3 (G Style)
Weight generation scheme         WeightScheme... Becke
Basis function cutoff            BFCut       ...    1.0000e-12
Integration weight cutoff        WCut        ...    1.0000e-14
Grids for H and He will be reduced by one unit

# of grid points (after initial pruning)     ...  41934 (   0.0 sec)
# of grid points (after weights+screening)   ...  41696 (   0.0 sec)
nearest neighbour list constructed           ...    0.0 sec
Grid point re-assignment to atoms done       ...    0.0 sec
Grid point division into batches done        ...    0.7 sec
Reduced shell lists constructed in    0.9 sec

Total number of grid points                  ...    41696
Total number of batches                      ...      652
Average number of points per batch           ...       63
Average number of grid points per atom       ...    20848
Average number of shells per batch           ...    36.84 (78.39%)
Average number of basis functions per batch  ...   134.39 (78.59%)
Average number of large shells per batch     ...    34.01 (92.31%)
Average number of large basis fcns per batch ...   123.41 (91.84%)
Maximum spatial batch extension              ...  33.31, 33.31, 28.04 au
Average spatial batch extension              ...   4.20,  4.21,  3.74 au

Time for grid setup =    0.915 sec

------------------------------
INITIAL GUESS: MODEL POTENTIAL
------------------------------
Loading Hartree-Fock densities                     ... done
Calculating cut-offs                               ... done
Setting up the integral package                    ... done
Initializing the effective Hamiltonian             ... done
Starting the Coulomb interaction                   ... done (   0.0 sec)
Reading the grid                                   ... done
Mapping shells                                     ... done
Starting the XC term evaluation                    ... done (   0.6 sec)
  promolecular density results
     # of electrons  =      3.999509728
     EX              =     -2.015331112
     EC              =     -0.076056526
     EX+EC           =     -2.091387638
Transforming the Hamiltonian                       ... done (   0.0 sec)
Diagonalizing the Hamiltonian                      ... done (   0.0 sec)
Back transforming the eigenvectors                 ... done (   0.0 sec)
Now organizing SCF variables                       ... done
                      ------------------
                      INITIAL GUESS DONE (   1.7 sec)
                      ------------------
--------------
SCF ITERATIONS
--------------
ITER       Energy         Delta-E        Max-DP      RMS-DP      [F,P]     Damp
               ***  Starting incremental Fock matrix formation  ***
  0     -8.0106296688   0.000000000000 0.01459383  0.00022116  0.2032943 0.7000
  1     -8.0246719122  -0.014042243322 0.01227803  0.00019005  0.1316431 0.7000
                               ***Turning on DIIS***
  2     -8.0338231344  -0.009151222287 0.03352621  0.00045164  0.0688466 0.0000
  3     -8.0437126928  -0.009889558321 0.01417271  0.00015878  0.0637023 0.0000
  4     -8.0465012735  -0.002788580752 0.00798423  0.00007858  0.0273165 0.0000
  5     -8.0471241373  -0.000622863816 0.00338105  0.00003540  0.0120965 0.0000
  6     -8.0472724465  -0.000148309127 0.00121393  0.00001768  0.0055904 0.0000
  7     -8.0473092036  -0.000036757140 0.00070809  0.00001066  0.0026978 0.0000
  8     -8.0473194348  -0.000010231172 0.00043190  0.00000665  0.0013925 0.0000
  9     -8.0473225258  -0.000003091027 0.00054882  0.00001022  0.0008262 0.0000
 10     -8.0473244460  -0.000001920174 0.00006596  0.00000097  0.0001572 0.0000
 11     -8.0473244746  -0.000000028661 0.00001561  0.00000019  0.0000139 0.0000
 12     -8.0473244749  -0.000000000219 0.00000082  0.00000002  0.0000021 0.0000
                 **** Energy Check signals convergence ****

               *****************************************************
               *                     SUCCESS                       *
               *           SCF CONVERGED AFTER  13 CYCLES          *
               *****************************************************


----------------
TOTAL SCF ENERGY
----------------

Total Energy       :           -8.04732447 Eh            -218.97883 eV

Components:
Nuclear Repulsion  :            0.99538004 Eh              27.08567 eV
Electronic Energy  :           -9.04270451 Eh            -246.06450 eV
One Electron Energy:          -12.45163781 Eh            -338.82629 eV
Two Electron Energy:            3.40893330 Eh              92.76179 eV

Virial components:
Potential Energy   :          -16.02622263 Eh            -436.09569 eV
Kinetic Energy     :            7.97889815 Eh             217.11686 eV
Virial Ratio       :            2.00857591


DFT components:
N(Alpha)           :        1.999999546999 electrons
N(Beta)            :        1.999999546999 electrons
N(Total)           :        3.999999093998 electrons
E(X)               :       -2.105067061172 Eh       
E(C)               :       -0.083219490139 Eh       
E(XC)              :       -2.188286551311 Eh       
DFET-embed. en.    :        0.000000000000 Eh       

---------------
SCF CONVERGENCE
---------------

  Last Energy change         ...   -6.0378e-12  Tolerance :   1.0000e-09
  Last MAX-Density change    ...    4.3839e-06  Tolerance :   1.0000e-08
  Last RMS-Density change    ...    6.5821e-08  Tolerance :   1.0000e-09
  Last DIIS Error            ...    2.0391e-07  Tolerance :   1.0000e-08

             **** THE GBW FILE WAS UPDATED (lih_pbe.gbw) ****
             **** DENSITY FILE WAS UPDATED (lih_pbe.scfp.tmp) ****
             **** ENERGY FILE WAS UPDATED (lih_pbe.en.tmp) ****
----------------------
UHF SPIN CONTAMINATION
----------------------

Warning: in a DFT calculation there is little theoretical justification to 
         calculate <S**2> as in Hartree-Fock theory. We will do it anyways
         but you should keep in mind that the values have only limited relevance

Expectation value of <S**2>     :    -0.000000
Ideal value S*(S+1) for S=0.0   :     0.000000
Deviation                       :    -0.000000

----------------
ORBITAL ENERGIES
----------------
                 SPIN UP ORBITALS
  NO   OCC          E(Eh)            E(eV) 
   0   1.0000      -1.868433       -50.8426 
   1   1.0000      -0.160295        -4.3618 
   2   0.0000      -0.058846        -1.6013 
   3   0.0000      -0.016375        -0.4456 
   4   0.0000      -0.016375        -0.4456 
   5   0.0000       0.003642         0.0991 
   6   0.0000       0.011479         0.3123 
   7   0.0000       0.020785         0.5656 
   8   0.0000       0.020785         0.5656 
   9   0.0000       0.035113         0.9555 
  10   0.0000       0.040148         1.0925 
  11   0.0000       0.045495         1.2380 
  12   0.0000       0.045837         1.2473 
  13   0.0000       0.045837         1.2473 
  14   0.0000       0.047154         1.2831 
  15   0.0000       0.047154         1.2831 
  16   0.0000       0.087011         2.3677 
  17   0.0000       0.095637         2.6024 
  18   0.0000       0.095637         2.6024 
  19   0.0000       0.099494         2.7074 
  20   0.0000       0.099494         2.7074 
  21   0.0000       0.100217         2.7270 
  22   0.0000       0.100217         2.7270 
  23   0.0000       0.101443         2.7604 
  24   0.0000       0.101443         2.7604 
  25   0.0000       0.114613         3.1188 
  26   0.0000       0.117967         3.2100 
  27   0.0000       0.125342         3.4107 
  28   0.0000       0.144620         3.9353 
  29   0.0000       0.144620         3.9353 
  30   0.0000       0.158749         4.3198 
  31   0.0000       0.159586         4.3426 
  32   0.0000       0.159586         4.3426 
  33   0.0000       0.161683         4.3996 
  34   0.0000       0.161683         4.3996 
  35   0.0000       0.164368         4.4727 
  36   0.0000       0.164368         4.4727 
  37   0.0000       0.165979         4.5165 
  38   0.0000       0.165979         4.5165 
  39   0.0000       0.206654         5.6233 
  40   0.0000       0.206654         5.6233 
  41   0.0000       0.217811         5.9270 
  42   0.0000       0.262813         7.1515 
  43   0.0000       0.274296         7.4640 
  44   0.0000       0.275064         7.4849 
  45   0.0000       0.275064         7.4849 
  46   0.0000       0.317617         8.6428 
  47   0.0000       0.332707         9.0534 
  48   0.0000       0.332707         9.0534 
  49   0.0000       0.348938         9.4951 
  50   0.0000       0.348938         9.4951 
  51   0.0000       0.368716        10.0333 
  52   0.0000       0.368716        10.0333 
  53   0.0000       0.382964        10.4210 
  54   0.0000       0.382964        10.4210 
  55   0.0000       0.412008        11.2113 
  56   0.0000       0.442103        12.0302 
  57   0.0000       0.442103        12.0302 
  58   0.0000       0.446225        12.1424 
  59   0.0000       0.446225        12.1424 
  60   0.0000       0.459777        12.5112 
  61   0.0000       0.517886        14.0924 
  62   0.0000       0.517886        14.0924 
  63   0.0000       0.535866        14.5816 
  64   0.0000       0.545258        14.8372 
  65   0.0000       0.545258        14.8372 
  66   0.0000       0.583753        15.8847 
  67   0.0000       0.583753        15.8847 
  68   0.0000       0.596044        16.2192 
  69   0.0000       0.600361        16.3367 
  70   0.0000       0.600361        16.3367 
  71   0.0000       0.607527        16.5317 
  72   0.0000       0.622067        16.9273 
  73   0.0000       0.622067        16.9273 
  74   0.0000       0.756564        20.5871 
  75   0.0000       0.766578        20.8596 
  76   0.0000       0.766578        20.8596 
  77   0.0000       0.821637        22.3579 
  78   0.0000       0.867600        23.6086 
  79   0.0000       0.867600        23.6086 
  80   0.0000       0.956517        26.0281 
  81   0.0000       0.956517        26.0281 
  82   0.0000       1.034512        28.1505 
  83   0.0000       1.061643        28.8888 
  84   0.0000       1.061643        28.8888 
  85   0.0000       1.070916        29.1411 
  86   0.0000       1.070916        29.1411 
  87   0.0000       1.147045        31.2127 
  88   0.0000       1.191297        32.4168 
  89   0.0000       1.191297        32.4168 
  90   0.0000       1.215768        33.0827 
  91   0.0000       1.215768        33.0827 
  92   0.0000       1.404723        38.2245 
  93   0.0000       1.422551        38.7096 
  94   0.0000       1.422551        38.7096 
  95   0.0000       1.488054        40.4920 
  96   0.0000       1.550686        42.1963 
  97   0.0000       1.550686        42.1963 
  98   0.0000       1.671441        45.4822 
  99   0.0000       1.883366        51.2490 
 100   0.0000       2.212022        60.1922 
 101   0.0000       2.320575        63.1461 
 102   0.0000       2.320575        63.1461 
 103   0.0000       2.383117        64.8479 
 104   0.0000       2.383117        64.8479 
 105   0.0000       2.420281        65.8592 
 106   0.0000       2.420281        65.8592 
 107   0.0000       2.646746        72.0216 
 108   0.0000       2.668054        72.6015 
 109   0.0000       2.668054        72.6015 
 110   0.0000       2.685082        73.0648 
 111   0.0000       2.685082        73.0648 
 112   0.0000       2.749776        74.8252 
 113   0.0000       2.749776        74.8252 
 114   0.0000       3.009521        81.8932 
 115   0.0000       3.009521        81.8932 
 116   0.0000       3.062843        83.3442 
 117   0.0000       3.066381        83.4405 
 118   0.0000       3.066381        83.4405 
 119   0.0000       3.331880        90.6651 
 120   0.0000       3.418025        93.0092 
 121   0.0000       3.418025        93.0092 
 122   0.0000       3.604708        98.0891 
 123   0.0000       3.604708        98.0891 
 124   0.0000       3.667869        99.8078 
 125   0.0000       3.667869        99.8078 
 126   0.0000       3.760357       102.3245 
 127   0.0000       3.964871       107.8896 
 128   0.0000       4.169845       113.4673 
 129   0.0000       4.169845       113.4673 
 130   0.0000       4.500559       122.4664 
 131   0.0000       4.851232       132.0087 
 132   0.0000       4.851232       132.0087 
 133   0.0000       5.227733       142.2538 
 134   0.0000       5.227733       142.2538 
 135   0.0000       5.438540       147.9902 
 136   0.0000       5.438540       147.9902 
 137   0.0000       5.905224       160.6893 
 138   0.0000       8.357550       227.4205 
 139   0.0000       8.357550       227.4205 
 140   0.0000       8.742431       237.8937 
 141   0.0000       8.858375       241.0486 
 142   0.0000       8.858378       241.0487 
 143   0.0000       9.107056       247.8156 
 144   0.0000       9.107056       247.8156 
 145   0.0000       9.247672       251.6419 
 146   0.0000      10.306710       280.4598 
 147   0.0000      10.693039       290.9724 
 148   0.0000      12.383146       336.9625 
 149   0.0000      12.383146       336.9625 
 150   0.0000      12.580560       342.3344 
 151   0.0000      12.580565       342.3346 
 152   0.0000      12.854553       349.7902 
 153   0.0000      12.946134       352.2822 
 154   0.0000      12.946134       352.2822 
 155   0.0000      16.895350       459.7459 
 156   0.0000      16.895350       459.7459 
 157   0.0000      16.897816       459.8129 
 158   0.0000      16.897915       459.8157 
 159   0.0000      16.925614       460.5694 
 160   0.0000      16.925620       460.5695 
 161   0.0000      16.943465       461.0551 
 162   0.0000      16.999814       462.5885 
 163   0.0000      16.999814       462.5885 
 164   0.0000      23.253983       632.7731 
 165   0.0000      23.253983       632.7731 
 166   0.0000      23.642964       643.3578 
 167   0.0000      38.673026      1052.3465 
 168   0.0000      90.944744      2474.7323 
 169   0.0000      90.944744      2474.7323 
 170   0.0000      91.221644      2482.2671 

                 SPIN DOWN ORBITALS
  NO   OCC          E(Eh)            E(eV) 
   0   1.0000      -1.868433       -50.8426 
   1   1.0000      -0.160295        -4.3618 
   2   0.0000      -0.058846        -1.6013 
   3   0.0000      -0.016375        -0.4456 
   4   0.0000      -0.016375        -0.4456 
   5   0.0000       0.003642         0.0991 
   6   0.0000       0.011479         0.3123 
   7   0.0000       0.020785         0.5656 
   8   0.0000       0.020785         0.5656 
   9   0.0000       0.035113         0.9555 
  10   0.0000       0.040148         1.0925 
  11   0.0000       0.045495         1.2380 
  12   0.0000       0.045837         1.2473 
  13   0.0000       0.045837         1.2473 
  14   0.0000       0.047154         1.2831 
  15   0.0000       0.047154         1.2831 
  16   0.0000       0.087011         2.3677 
  17   0.0000       0.095637         2.6024 
  18   0.0000       0.095637         2.6024 
  19   0.0000       0.099494         2.7074 
  20   0.0000       0.099494         2.7074 
  21   0.0000       0.100217         2.7270 
  22   0.0000       0.100217         2.7270 
  23   0.0000       0.101443         2.7604 
  24   0.0000       0.101443         2.7604 
  25   0.0000       0.114613         3.1188 
  26   0.0000       0.117967         3.2100 
  27   0.0000       0.125342         3.4107 
  28   0.0000       0.144620         3.9353 
  29   0.0000       0.144620         3.9353 
  30   0.0000       0.158749         4.3198 
  31   0.0000       0.159586         4.3426 
  32   0.0000       0.159586         4.3426 
  33   0.0000       0.161683         4.3996 
  34   0.0000       0.161683         4.3996 
  35   0.0000       0.164368         4.4727 
  36   0.0000       0.164368         4.4727 
  37   0.0000       0.165979         4.5165 
  38   0.0000       0.165979         4.5165 
  39   0.0000       0.206654         5.6233 
  40   0.0000       0.206654         5.6233 
  41   0.0000       0.217811         5.9270 
  42   0.0000       0.262813         7.1515 
  43   0.0000       0.274296         7.4640 
  44   0.0000       0.275064         7.4849 
  45   0.0000       0.275064         7.4849 
  46   0.0000       0.317617         8.6428 
  47   0.0000       0.332707         9.0534 
  48   0.0000       0.332707         9.0534 
  49   0.0000       0.348938         9.4951 
  50   0.0000       0.348938         9.4951 
  51   0.0000       0.368716        10.0333 
  52   0.0000       0.368716        10.0333 
  53   0.0000       0.382964        10.4210 
  54   0.0000       0.382964        10.4210 
  55   0.0000       0.412008        11.2113 
  56   0.0000       0.442103        12.0302 
  57   0.0000       0.442103        12.0302 
  58   0.0000       0.446225        12.1424 
  59   0.0000       0.446225        12.1424 
  60   0.0000       0.459777        12.5112 
  61   0.0000       0.517886        14.0924 
  62   0.0000       0.517886        14.0924 
  63   0.0000       0.535866        14.5816 
  64   0.0000       0.545258        14.8372 
  65   0.0000       0.545258        14.8372 
  66   0.0000       0.583753        15.8847 
  67   0.0000       0.583753        15.8847 
  68   0.0000       0.596044        16.2192 
  69   0.0000       0.600361        16.3367 
  70   0.0000       0.600361        16.3367 
  71   0.0000       0.607527        16.5317 
  72   0.0000       0.622067        16.9273 
  73   0.0000       0.622067        16.9273 
  74   0.0000       0.756564        20.5871 
  75   0.0000       0.766578        20.8596 
  76   0.0000       0.766578        20.8596 
  77   0.0000       0.821637        22.3579 
  78   0.0000       0.867600        23.6086 
  79   0.0000       0.867600        23.6086 
  80   0.0000       0.956517        26.0281 
  81   0.0000       0.956517        26.0281 
  82   0.0000       1.034512        28.1505 
  83   0.0000       1.061643        28.8888 
  84   0.0000       1.061643        28.8888 
  85   0.0000       1.070916        29.1411 
  86   0.0000       1.070916        29.1411 
  87   0.0000       1.147045        31.2127 
  88   0.0000       1.191297        32.4168 
  89   0.0000       1.191297        32.4168 
  90   0.0000       1.215768        33.0827 
  91   0.0000       1.215768        33.0827 
  92   0.0000       1.404723        38.2245 
  93   0.0000       1.422551        38.7096 
  94   0.0000       1.422551        38.7096 
  95   0.0000       1.488054        40.4920 
  96   0.0000       1.550686        42.1963 
  97   0.0000       1.550686        42.1963 
  98   0.0000       1.671441        45.4822 
  99   0.0000       1.883366        51.2490 
 100   0.0000       2.212022        60.1922 
 101   0.0000       2.320575        63.1461 
 102   0.0000       2.320575        63.1461 
 103   0.0000       2.383117        64.8479 
 104   0.0000       2.383117        64.8479 
 105   0.0000       2.420281        65.8592 
 106   0.0000       2.420281        65.8592 
 107   0.0000       2.646746        72.0216 
 108   0.0000       2.668054        72.6015 
 109   0.0000       2.668054        72.6015 
 110   0.0000       2.685082        73.0648 
 111   0.0000       2.685082        73.0648 
 112   0.0000       2.749776        74.8252 
 113   0.0000       2.749776        74.8252 
 114   0.0000       3.009521        81.8932 
 115   0.0000       3.009521        81.8932 
 116   0.0000       3.062843        83.3442 
 117   0.0000       3.066381        83.4405 
 118   0.0000       3.066381        83.4405 
 119   0.0000       3.331880        90.6651 
 120   0.0000       3.418025        93.0092 
 121   0.0000       3.418025        93.0092 
 122   0.0000       3.604708        98.0891 
 123   0.0000       3.604708        98.0891 
 124   0.0000       3.667869        99.8078 
 125   0.0000       3.667869        99.8078 
 126   0.0000       3.760357       102.3245 
 127   0.0000       3.964871       107.8896 
 128   0.0000       4.169845       113.4673 
 129   0.0000       4.169845       113.4673 
 130   0.0000       4.500559       122.4664 
 131   0.0000       4.851232       132.0087 
 132   0.0000       4.851232       132.0087 
 133   0.0000       5.227733       142.2538 
 134   0.0000       5.227733       142.2538 
 135   0.0000       5.438540       147.9902 
 136   0.0000       5.438540       147.9902 
 137   0.0000       5.905224       160.6893 
 138   0.0000       8.357550       227.4205 
 139   0.0000       8.357550       227.4205 
 140   0.0000       8.742431       237.8937 
 141   0.0000       8.858375       241.0486 
 142   0.0000       8.858378       241.0487 
 143   0.0000       9.107056       247.8156 
 144   0.0000       9.107056       247.8156 
 145   0.0000       9.247672       251.6419 
 146   0.0000      10.306710       280.4598 
 147   0.0000      10.693039       290.9724 
 148   0.0000      12.383146       336.9625 
 149   0.0000      12.383146       336.9625 
 150   0.0000      12.580560       342.3344 
 151   0.0000      12.580565       342.3346 
 152   0.0000      12.854553       349.7902 
 153   0.0000      12.946134       352.2822 
 154   0.0000      12.946134       352.2822 
 155   0.0000      16.895350       459.7459 
 156   0.0000      16.895350       459.7459 
 157   0.0000      16.897816       459.8129 
 158   0.0000      16.897915       459.8157 
 159   0.0000      16.925614       460.5694 
 160   0.0000      16.925620       460.5695 
 161   0.0000      16.943465       461.0551 
 162   0.0000      16.999814       462.5885 
 163   0.0000      16.999814       462.5885 
 164   0.0000      23.253983       632.7731 
 165   0.0000      23.253983       632.7731 
 166   0.0000      23.642964       643.3578 
 167   0.0000      38.673026      1052.3465 
 168   0.0000      90.944744      2474.7323 
 169   0.0000      90.944744      2474.7323 
 170   0.0000      91.221644      2482.2671 

                    ********************************
                    * MULLIKEN POPULATION ANALYSIS *
                    ********************************

--------------------------------------------
MULLIKEN ATOMIC CHARGES AND SPIN POPULATIONS
--------------------------------------------
   0 Li:    0.562764    0.000000
   1 H :   -0.562764   -0.000000
Sum of atomic charges         :   -0.0000000
Sum of atomic spin populations:   -0.0000000

-----------------------------------------------------
MULLIKEN REDUCED ORBITAL CHARGES AND SPIN POPULATIONS
-----------------------------------------------------
CHARGE
  0 Lis       :     2.259369  s :     2.259369
      pz      :     0.170674  p :     0.170674
      px      :    -0.000000
      py      :     0.000000
      dz2     :     0.006828  d :     0.006828
      dxz     :     0.000000
      dyz     :    -0.000000
      dx2y2   :    -0.000000
      dxy     :    -0.000000
      f0      :     0.000381  f :     0.000381
      f+1     :     0.000000
      f-1     :     0.000000
      f+2     :    -0.000000
      f-2     :     0.000000
      f+3     :     0.000000
      f-3     :     0.000000
      g0      :    -0.000016  g :    -0.000016
      g+1     :     0.000000
      g-1     :     0.000000
      g+2     :     0.000000
      g-2     :    -0.000000
      g+3     :     0.000000
      g-3     :     0.000000
      g+4     :     0.000000
      g-4     :    -0.000000
  1 H s       :     1.539001  s :     1.539001
      pz      :     0.020381  p :     0.020381
      px      :     0.000000
      py      :    -0.000000
      dz2     :     0.003007  d :     0.003007
      dxz     :     0.000000
      dyz     :    -0.000000
      dx2y2   :     0.000000
      dxy     :     0.000000
      f0      :     0.000368  f :     0.000368
      f+1     :    -0.000000
      f-1     :    -0.000000
      f+2     :     0.000000
      f-2     :     0.000000
      f+3     :     0.000000
      f-3     :    -0.000000
      g0      :     0.000007  g :     0.000007
      g+1     :    -0.000000
      g-1     :    -0.000000
      g+2     :    -0.000000
      g-2     :    -0.000000
      g+3     :     0.000000
      g-3     :    -0.000000
      g+4     :     0.000000
      g-4     :     0.000000

SPIN
  0 Lis       :     0.000000  s :     0.000000
      pz      :     0.000000  p :     0.000000
      px      :    -0.000000
      py      :     0.000000
      dz2     :     0.000000  d :     0.000000
      dxz     :     0.000000
      dyz     :     0.000000
      dx2y2   :     0.000000
      dxy     :     0.000000
      f0      :     0.000000  f :     0.000000
      f+1     :    -0.000000
      f-1     :    -0.000000
      f+2     :     0.000000
      f-2     :     0.000000
      f+3     :    -0.000000
      f-3     :    -0.000000
      g0      :     0.000000  g :     0.000000
      g+1     :    -0.000000
      g-1     :    -0.000000
      g+2     :    -0.000000
      g-2     :    -0.000000
      g+3     :    -0.000000
      g-3     :     0.000000
      g+4     :     0.000000
      g-4     :     0.000000
  1 H s       :    -0.000000  s :    -0.000000
      pz      :     0.000000  p :     0.000000
      px      :    -0.000000
      py      :    -0.000000
      dz2     :     0.000000  d :     0.000000
      dxz     :     0.000000
      dyz     :     0.000000
      dx2y2   :     0.000000
      dxy     :    -0.000000
      f0      :    -0.000000  f :    -0.000000
      f+1     :     0.000000
      f-1     :    -0.000000
      f+2     :    -0.000000
      f-2     :    -0.000000
      f+3     :     0.000000
      f-3     :     0.000000
      g0      :    -0.000000  g :    -0.000000
      g+1     :     0.000000
      g-1     :    -0.000000
      g+2     :    -0.000000
      g-2     :     0.000000
      g+3     :     0.000000
      g-3     :     0.000000
      g+4     :    -0.000000
      g-4     :     0.000000


                     *******************************
                     * LOEWDIN POPULATION ANALYSIS *
                     *******************************

-------------------------------------------
LOEWDIN ATOMIC CHARGES AND SPIN POPULATIONS
-------------------------------------------
   0 Li:    0.265639    0.000000
   1 H :   -0.265639   -0.000000

----------------------------------------------------
LOEWDIN REDUCED ORBITAL CHARGES AND SPIN POPULATIONS
----------------------------------------------------
CHARGE
  0 Lis       :     2.377615  s :     2.377615
      pz      :     0.284079  p :     0.284079
      px      :     0.000000
      py      :     0.000000
      dz2     :     0.056106  d :     0.056106
      dxz     :     0.000000
      dyz     :     0.000000
      dx2y2   :     0.000000
      dxy     :     0.000000
      f0      :     0.015059  f :     0.015059
      f+1     :     0.000000
      f-1     :     0.000000
      f+2     :     0.000000
      f-2     :     0.000000
      f+3     :     0.000000
      f-3     :     0.000000
      g0      :     0.001501  g :     0.001501
      g+1     :     0.000000
      g-1     :     0.000000
      g+2     :     0.000000
      g-2     :     0.000000
      g+3     :     0.000000
      g-3     :     0.000000
      g+4     :     0.000000
      g-4     :     0.000000
  1 H s       :     1.191391  s :     1.191391
      pz      :     0.026699  p :     0.026699
      px      :     0.000000
      py      :     0.000000
      dz2     :     0.027553  d :     0.027553
      dxz     :     0.000000
      dyz     :     0.000000
      dx2y2   :     0.000000
      dxy     :     0.000000
      f0      :     0.011686  f :     0.011686
      f+1     :     0.000000
      f-1     :     0.000000
      f+2     :     0.000000
      f-2     :     0.000000
      f+3     :     0.000000
      f-3     :     0.000000
      g0      :     0.008310  g :     0.008310
      g+1     :     0.000000
      g-1     :     0.000000
      g+2     :     0.000000
      g-2     :     0.000000
      g+3     :     0.000000
      g-3     :     0.000000
      g+4     :     0.000000
      g-4     :     0.000000

SPIN
  0 Lis       :    -0.000000  s :    -0.000000
      pz      :    -0.000000  p :    -0.000000
      px      :     0.000000
      py      :    -0.000000
      dz2     :     0.000000  d :     0.000000
      dxz     :    -0.000000
      dyz     :    -0.000000
      dx2y2   :     0.000000
      dxy     :    -0.000000
      f0      :     0.000000  f :     0.000000
      f+1     :    -0.000000
      f-1     :    -0.000000
      f+2     :     0.000000
      f-2     :     0.000000
      f+3     :    -0.000000
      f-3     :    -0.000000
      g0      :    -0.000000  g :    -0.000000
      g+1     :    -0.000000
      g-1     :    -0.000000
      g+2     :    -0.000000
      g-2     :    -0.000000
      g+3     :    -0.000000
      g-3     :     0.000000
      g+4     :     0.000000
      g-4     :     0.000000
  1 H s       :    -0.000000  s :    -0.000000
      pz      :    -0.000000  p :    -0.000000
      px      :    -0.000000
      py      :    -0.000000
      dz2     :     0.000000  d :     0.000000
      dxz     :     0.000000
      dyz     :     0.000000
      dx2y2   :    -0.000000
      dxy     :    -0.000000
      f0      :    -0.000000  f :    -0.000000
      f+1     :    -0.000000
      f-1     :    -0.000000
      f+2     :    -0.000000
      f-2     :    -0.000000
      f+3     :     0.000000
      f-3     :    -0.000000
      g0      :     0.000000  g :     0.000000
      g+1     :    -0.000000
      g-1     :     0.000000
      g+2     :    -0.000000
      g-2     :    -0.000000
      g+3     :     0.000000
      g-3     :     0.000000
      g+4     :    -0.000000
      g-4     :     0.000000


                      *****************************
                      * MAYER POPULATION ANALYSIS *
                      *****************************

  NA   - Mulliken gross atomic population
  ZA   - Total nuclear charge
  QA   - Mulliken gross atomic charge
  VA   - Mayer's total valence
  BVA  - Mayer's bonded valence
  FA   - Mayer's free valence

  ATOM       NA         ZA         QA         VA         BVA        FA
  0 Li     2.4372     3.0000     0.5628     0.7325     0.7325     0.0000
  1 H      1.5628     1.0000    -0.5628     0.7325     0.7325    -0.0000

  Mayer bond orders larger than 0.1
B(  0-Li,  1-H ) :   0.7325 

-------
TIMINGS
-------

Total SCF time: 0 days 0 hours 2 min 4 sec 

Total time                  ....     124.489 sec
Sum of individual times     ....     124.130 sec  ( 99.7%)

Fock matrix formation       ....     122.091 sec  ( 98.1%)
  XC integration            ....      18.065 sec  ( 14.8% of F)
    Basis function eval.    ....       2.314 sec  ( 12.8% of XC)
    Density eval.           ....       3.630 sec  ( 20.1% of XC)
    XC-Functional eval.     ....       0.521 sec  (  2.9% of XC)
    XC-Potential eval.      ....      11.033 sec  ( 61.1% of XC)
Diagonalization             ....       0.169 sec  (  0.1%)
Density matrix formation    ....       0.003 sec  (  0.0%)
Population analysis         ....       0.046 sec  (  0.0%)
Initial guess               ....       0.758 sec  (  0.6%)
Orbital Transformation      ....       0.000 sec  (  0.0%)
Orbital Orthonormalization  ....       0.000 sec  (  0.0%)
DIIS solution               ....       0.147 sec  (  0.1%)
Grid generation             ....       0.915 sec  (  0.7%)

-------------------------   --------------------
FINAL SINGLE POINT ENERGY        -8.047324474857
-------------------------   --------------------


                            ***************************************
                            *     ORCA property calculations      *
                            ***************************************

                                    ---------------------
                                    Active property flags
                                    ---------------------
   (+) Dipole Moment
   (+) Polarizability


------------------------------------------------------------------------------
                       ORCA ELECTRIC PROPERTIES CALCULATION
------------------------------------------------------------------------------

Dipole Moment Calculation                       ... on
Quadrupole Moment Calculation                   ... off
Polarizability Calculation                      ... Analytic (CP-SCF)
GBWName                                         ... lih_pbe.gbw
Electron density file                           ... lih_pbe.scfp.tmp
The origin for moment calculation is the CENTER OF MASS  = ( 0.000000,  0.000000  0.382191)

-------------
DIPOLE MOMENT
-------------
                                X             Y             Z
Electronic contribution:      0.00000       0.00000      -3.69445
Nuclear contribution   :      0.00000       0.00000       1.48516
                        -----------------------------------------
Total Dipole Moment    :      0.00000       0.00000      -2.20929
                        -----------------------------------------
Magnitude (a.u.)       :      2.20929
Magnitude (Debye)      :      5.61557



--------------------
Rotational spectrum 
--------------------
 
Rotational constants in cm-1:     0.000000     7.529392     7.529392 
Rotational constants in MHz :     0.000000 225725.492015 225725.492015 

 Dipole components along the rotational axes: 
x,y,z [a.u.] :    -2.209292     0.000000     0.000000 
x,y,z [Debye]:    -5.615574     0.000000     0.000000 

 
Transforming and storing MO dipole integrals   ... done

                ... starting polarizability calculation

Opening the Dipole integral file               ... (lih_pbe.dmo.tmp) done
Reading Dipole-MO integrals                    ... done
Solving CP-SCF equations                       ... 
------------------------------------------------------------------------------
                           ORCA CP-SCF CALCULATION
------------------------------------------------------------------------------

Input orbitals are from        ... lih_pbe.gbw
Input Perturbation             ... lih_pbe.cpv.tmp
Wavefunction output            ... lih_pbe.cpu.tmp
Perturbation mode              ... Real perturbation (singlet)
Solver                         ... POPLE
Max. number of iterations      ... 200
Convergence tolerance          ... 1.000e-06
Integral handling              ... Direct
Number of perturbations        ... 3
Number of operators            ... 2
Orbital ranges used for CP-SCF:
 Operator 0:  Orbitals   0...  1  to   2...170
 Operator 1:  Orbitals   0...  1  to   2...170
DFT calculation                         ... on
Exchange functional (SCF)               ... PBE
Exchange functional (CP-SCF)            ... PBE
   PBE kappa parameter  XKappa (SCF)    ...  0.804000
   PBE kappa parameter  XKappa (CP-SCF) ...  0.804000
   PBE mue parameter   XMuePBE (SCF)    ...  0.219520
   PBE mue parameter   XMuePBE (CP-SCF) ...  0.219520
Correlation functional (SCF)            ... PBE
Correlation functional (CP-SCF)         ... PBE
   PBE beta parameter CBetaPBE (SCF)    ...  0.066725
   PBE beta parameter CBetaPBE (CP-SCF) ...  0.066725
 LDA part of GGA corr.  LDAOpt (SCF)    ... PW91-LDA
 LDA part of GGA corr.  LDAOpt (CP-SCF) ... PW91-LDA
Variables per vector in CP-SCF ... 676
Number of vectors sought       ... 3
Recalculating density on grid  ... done
Calculating the xc-kernel      ... done
     CP-SCF ITERATION   0: 
     CP-SCF ITERATION   1:      0.230407079827
     CP-SCF ITERATION   2:      0.000514431950
     CP-SCF ITERATION   3:      0.000004493256
     CP-SCF ITERATION   4:      0.000000047709
done
Reading CP-SCF coefficients                    ... done
Doing the polarizability tensor   ... done
Cleaning up                                    ... done

-------------------------
THE POLARIZABILITY TENSOR
-------------------------

The raw cartesian tensor (atomic units):
   34.08606     -0.00000      0.00000  
   -0.00000     34.08606     -0.00000  
    0.00000     -0.00000     32.29391  
diagonalized tensor: 
   32.29391     34.08606     34.08606  

   -0.00000     -0.99569      0.09273  
    0.00000     -0.09273     -0.99569  
    1.00000     -0.00000      0.00000  

Isotropic polarizability :  33.48868


Timings for individual modules:

Sum of individual times         ...      201.260 sec (=   3.354 min)
GTO integral calculation        ...        0.393 sec (=   0.007 min)   0.2 %
SCF iterations                  ...      124.543 sec (=   2.076 min)  61.9 %
Solution of CP-SCF eqns.        ...       76.324 sec (=   1.272 min)  37.9 %
                             ****ORCA TERMINATED NORMALLY****
TOTAL RUN TIME: 0 days 0 hours 3 minutes 21 seconds 548 msec
