
                                 *****************
                                 * O   R   C   A *
                                 *****************

           --- An Ab Initio, DFT and Semiempirical electronic structure package ---

                  #######################################################
                  #                        -***-                        #
                  #          Department of theory and spectroscopy      #
                  #               Directorship: Frank Neese             #
                  #        Max Planck Institute fuer Kohlenforschung    #
                  #                Kaiser Wilhelm Platz 1               #
                  #                 D-45470 Muelheim/Ruhr               #
                  #                      Germany                        #
                  #                                                     #
                  #                  All rights reserved                #
                  #                        -***-                        #
                  #######################################################


                         Program Version 4.1.2  - RELEASE  -


 With contributions from (in alphabetic order):
   Daniel Aravena         : Magnetic Properties
   Michael Atanasov       : Ab Initio Ligand Field Theory
   Alexander A. Auer      : GIAO ZORA
   Ute Becker             : Parallelization
   Giovanni Bistoni       : ED, Open-shell LED
   Martin Brehm           : Molecular dynamics
   Dmytro Bykov           : SCF Hessian
   Vijay G. Chilkuri      : MRCI spin determinant printing
   Dipayan Datta          : RHF DLPNO-CCSD density
   Achintya Kumar Dutta   : EOM-CC, STEOM-CC
   Dmitry Ganyushin       : Spin-Orbit,Spin-Spin,Magnetic field MRCI
   Miquel Garcia          : C-PCM Hessian
   Yang Guo               : DLPNO-NEVPT2, CIM, IAO-localization
   Andreas Hansen         : Spin unrestricted coupled pair/coupled cluster methods
   Benjamin Helmich-Paris : CASSCF linear response (MC-RPA)
   Lee Huntington         : MR-EOM, pCC
   Robert Izsak           : Overlap fitted RIJCOSX, COSX-SCS-MP3, EOM
   Christian Kollmar      : KDIIS, OOCD, Brueckner-CCSD(T), CCSD density
   Simone Kossmann        : Meta GGA functionals, TD-DFT gradient, OOMP2, MP2 Hessian
   Martin Krupicka        : AUTO-CI
   Lucas Lang             : DCDCAS
   Dagmar Lenk            : GEPOL surface, SMD
   Dimitrios Liakos       : Extrapolation schemes; parallel MDCI
   Dimitrios Manganas     : ROCIS; embedding schemes
   Dimitrios Pantazis     : SARC Basis sets
   Taras Petrenko         : DFT Hessian,TD-DFT gradient, ASA, ECA, R-Raman, ABS, FL, XAS/XES, NRVS
   Peter Pinski           : DLPNO-MP2, DLPNO-MP2 Gradient
   Christoph Reimann      : Effective Core Potentials
   Marius Retegan         : Local ZFS, SOC
   Christoph Riplinger    : Optimizer, TS searches, QM/MM, DLPNO-CCSD(T), (RO)-DLPNO pert. Triples
   Tobias Risthaus        : Range-separated hybrids, TD-DFT gradient, RPA, STAB
   Michael Roemelt        : Restricted open shell CIS
   Masaaki Saitow         : Open-shell DLPNO
   Barbara Sandhoefer     : DKH picture change effects
   Avijit Sen             : IP-ROCIS
   Kantharuban Sivalingam : CASSCF convergence, NEVPT2, FIC-MRCI
   Bernardo de Souza      : ESD, SOC TD-DFT
   Georgi Stoychev        : AutoAux, RI-MP2 NMR
   Willem Van den Heuvel  : Paramagnetic NMR
   Boris Wezisla          : Elementary symmetry handling
   Frank Wennmohs         : Technical directorship


 We gratefully acknowledge several colleagues who have allowed us to
 interface, adapt or use parts of their codes:
   Stefan Grimme, W. Hujo, H. Kruse,             : VdW corrections, initial TS optimization,
                  C. Bannwarth                     DFT functionals, gCP, sTDA/sTD-DF
   Ed Valeev                                     : LibInt (2-el integral package), F12 methods
   Garnet Chan, S. Sharma, J. Yang, R. Olivares  : DMRG
   Ulf Ekstrom                                   : XCFun DFT Library
   Mihaly Kallay                                 : mrcc  (arbitrary order and MRCC methods)
   Andreas Klamt, Michael Diedenhofen            : otool_cosmo (COSMO solvation model)
   Jiri Pittner, Ondrej Demel                    : Mk-CCSD
   Frank Weinhold                                : gennbo (NPA and NBO analysis)
   Christopher J. Cramer and Donald G. Truhlar   : smd solvation model
   Lars Goerigk                                  : TD-DFT with DH, B97 family of functionals
   V. Asgeirsson, H. Jonsson                     : NEB implementation
   FAccTs GmbH                                   : IRC, NEB, NEB-TS, Multilevel


 Your calculation uses the libint2 library for the computation of 2-el integrals
 For citations please refer to: http://libint.valeyev.net

 This ORCA versions uses:
   CBLAS   interface :  Fast vector & matrix operations
   LAPACKE interface :  Fast linear algebra routines
   SCALAPACK package :  Parallel linear algebra routines


----- Orbital basis set information -----
Your calculation utilizes the basis: aug-pc-4
   H, C-F              : F. Jensen, J. Chem. Phys. 115, 9113 (2001).
                         F. Jensen, J. Chem. Phys. 116, 7372 (2002).
                         F. Jensen, J. Chem. Phys. 117, 9234 (2002).
   Si-Cl               : F. Jensen, T. Helgaker, J. Chem. Phys. 121, 3463 (2004).
   He-B, Ne-Mg, Al, Ar : F. Jensen, J. Phys. Chem. A 111, 11198 (2007).
   K, Ca, Ga-Kr        : F. Jensen, J. Chem. Phys. 136, 094110 (2012).
   Sc-Zn               : F. Jensen, J. Chem. Phys. 138, 014107 (2013).

================================================================================
                                        WARNINGS
                       Please study these warnings very carefully!
================================================================================


INFO   : the flag for use of LIBINT has been found!

================================================================================
                                       INPUT FILE
================================================================================
NAME = mg2_pbe.inp
|  1> !uks pbe nori aug-pc-4 grid7 nofinalgrid verytightscf
|  2> 
|  3> %maxcore 1500
|  4> 
|  5> %pal nprocs 1 end
|  6> 
|  7> %scf
|  8> 	maxiter 200
|  9> end
| 10> %elprop
| 11> 	dipole true
| 12> 	 polar 1
| 13> 	 maxiter 200
| 14> end
| 15> 
| 16> * xyz 0 1
| 17> Mg 0.0000 0.0000 0.0000
| 18> Mg 0.0000 0.0000 3.8905
| 19> *
| 20> 
| 21>                          ****END OF INPUT****
================================================================================

                       ****************************
                       * Single Point Calculation *
                       ****************************

---------------------------------
CARTESIAN COORDINATES (ANGSTROEM)
---------------------------------
  Mg     0.000000    0.000000    0.000000
  Mg     0.000000    0.000000    3.890500

----------------------------
CARTESIAN COORDINATES (A.U.)
----------------------------
  NO LB      ZA    FRAG     MASS         X           Y           Z
   0 Mg   12.0000    0    24.305    0.000000    0.000000    0.000000
   1 Mg   12.0000    0    24.305    0.000000    0.000000    7.351980

--------------------------------
INTERNAL COORDINATES (ANGSTROEM)
--------------------------------
 Mg     0   0   0     0.000000000000     0.00000000     0.00000000
 Mg     1   0   0     3.890500000000     0.00000000     0.00000000

---------------------------
INTERNAL COORDINATES (A.U.)
---------------------------
 Mg     0   0   0     0.000000000000     0.00000000     0.00000000
 Mg     1   0   0     7.351979524021     0.00000000     0.00000000

---------------------
BASIS SET INFORMATION
---------------------
There are 1 groups of distinct atoms

 Group   1 Type Mg  : 42s16p4d3f2g contracted to 8s6p4d3f2g pattern {15111111111/1111111/1111/111/11}

Atom   0Mg   basis set group =>   1
Atom   1Mg   basis set group =>   1
------------------------------------------------------------------------------
                           ORCA GTO INTEGRAL CALCULATION
------------------------------------------------------------------------------

                         BASIS SET STATISTICS AND STARTUP INFO

 # of primitive gaussian shells          ...  134
 # of primitive gaussian functions       ...  298
 # of contracted shells                  ...   46
 # of contracted basis functions         ...  170
 Highest angular momentum                ...    4
 Maximum contraction depth               ...   15
 Integral package used                   ... LIBINT
 Integral threshhold            Thresh   ...  1.000e-12
 Primitive cut-off              TCut     ...  1.000e-14


------------------------------ INTEGRAL EVALUATION ----------------------------


 * One electron integrals 
 Pre-screening matrix                    ... done
 Shell pair data                         ... done (   0.001 sec)

-------------------------------------------------------------------------------
                                 ORCA SCF
-------------------------------------------------------------------------------

------------
SCF SETTINGS
------------
Hamiltonian:
 Density Functional     Method          .... DFT(GTOs)
 Exchange Functional    Exchange        .... PBE
   PBE kappa parameter   XKappa         ....  0.804000
   PBE mue parameter    XMuePBE         ....  0.219520
 Correlation Functional Correlation     .... PBE
   PBE beta parameter  CBetaPBE         ....  0.066725
 LDA part of GGA corr.  LDAOpt          .... PW91-LDA
 Gradients option       PostSCFGGA      .... off
   Density functional embedding theory  .... OFF
   NL short-range parameter             ....  6.400000


General Settings:
 Integral files         IntName         .... mg2_pbe
 Hartree-Fock type      HFTyp           .... UHF
 Total Charge           Charge          ....    0
 Multiplicity           Mult            ....    1
 Number of Electrons    NEL             ....   24
 Basis Dimension        Dim             ....  170
 Nuclear Repulsion      ENuc            ....     19.5865616232 Eh

Convergence Acceleration:
 DIIS                   CNVDIIS         .... on
   Start iteration      DIISMaxIt       ....    12
   Startup error        DIISStart       ....  0.200000
   # of expansion vecs  DIISMaxEq       ....     5
   Bias factor          DIISBfac        ....   1.050
   Max. coefficient     DIISMaxC        ....  10.000
 Newton-Raphson         CNVNR           .... off
 SOSCF                  CNVSOSCF        .... off
 Level Shifting         CNVShift        .... on
   Level shift para.    LevelShift      ....    0.2500
   Turn off err/grad.   ShiftErr        ....    0.0010
 Zerner damping         CNVZerner       .... off
 Static damping         CNVDamp         .... on
   Fraction old density DampFac         ....    0.7000
   Max. Damping (<1)    DampMax         ....    0.9800
   Min. Damping (>=0)   DampMin         ....    0.0000
   Turn off err/grad.   DampErr         ....    0.1000
 Fernandez-Rico         CNVRico         .... off

SCF Procedure:
 Maximum # iterations   MaxIter         ....   200
 SCF integral mode      SCFMode         .... Direct
   Integral package                     .... LIBINT
 Reset frequency        DirectResetFreq ....    20
 Integral Threshold     Thresh          ....  1.000e-12 Eh
 Primitive CutOff       TCut            ....  1.000e-14 Eh

Convergence Tolerance:
 Convergence Check Mode ConvCheckMode   .... Total+1el-Energy
 Convergence forced     ConvForced      .... 0
 Energy Change          TolE            ....  1.000e-09 Eh
 1-El. energy change                    ....  1.000e-06 Eh
 DIIS Error             TolErr          ....  1.000e-08


Diagonalization of the overlap matrix:
Smallest eigenvalue                        ... 6.233e-05
Time for diagonalization                   ...    0.113 sec
Threshold for overlap eigenvalues          ... 1.000e-08
Number of eigenvalues below threshold      ... 0
Time for construction of square roots      ...    0.004 sec
Total time needed                          ...    0.117 sec

-------------------
DFT GRID GENERATION
-------------------

General Integration Accuracy     IntAcc      ...  5.670
Radial Grid Type                 RadialGrid  ... Gauss-Chebyshev
Angular Grid (max. acc.)         AngularGrid ... Lebedev-770
Angular grid pruning method      GridPruning ... 3 (G Style)
Weight generation scheme         WeightScheme... Becke
Basis function cutoff            BFCut       ...    1.0000e-12
Integration weight cutoff        WCut        ...    1.0000e-14
Grids for H and He will be reduced by one unit

# of grid points (after initial pruning)     ...  53112 (   0.0 sec)
# of grid points (after weights+screening)   ...  53014 (   0.0 sec)
nearest neighbour list constructed           ...    0.0 sec
Grid point re-assignment to atoms done       ...    0.0 sec
Grid point division into batches done        ...    1.2 sec
Reduced shell lists constructed in    1.5 sec

Total number of grid points                  ...    53014
Total number of batches                      ...      830
Average number of points per batch           ...       63
Average number of grid points per atom       ...    26507
Average number of shells per batch           ...    35.11 (76.32%)
Average number of basis functions per batch  ...   130.65 (76.85%)
Average number of large shells per batch     ...    31.73 (90.39%)
Average number of large basis fcns per batch ...   117.36 (89.83%)
Maximum spatial batch extension              ...  30.18, 26.07, 26.35 au
Average spatial batch extension              ...   3.66,  3.66,  3.39 au

Time for grid setup =    1.585 sec

------------------------------
INITIAL GUESS: MODEL POTENTIAL
------------------------------
Loading Hartree-Fock densities                     ... done
Calculating cut-offs                               ... done
Setting up the integral package                    ... done
Initializing the effective Hamiltonian             ... done
Starting the Coulomb interaction                   ... done (   0.0 sec)
Reading the grid                                   ... done
Mapping shells                                     ... done
Starting the XC term evaluation                    ... done (   0.9 sec)
  promolecular density results
     # of electrons  =     23.999999447
     EX              =    -31.835403679
     EC              =     -0.827067509
     EX+EC           =    -32.662471188
Transforming the Hamiltonian                       ... done (   0.0 sec)
Diagonalizing the Hamiltonian                      ... done (   0.0 sec)
Back transforming the eigenvectors                 ... done (   0.0 sec)
Now organizing SCF variables                       ... done
                      ------------------
                      INITIAL GUESS DONE (   2.6 sec)
                      ------------------
--------------
SCF ITERATIONS
--------------
ITER       Energy         Delta-E        Max-DP      RMS-DP      [F,P]     Damp
               ***  Starting incremental Fock matrix formation  ***
  0   -399.9136964815   0.000000000000 0.00273980  0.00006097  0.0069927 0.7000
  1   -399.9137668916  -0.000070410144 0.00167556  0.00004299  0.0041742 0.7000
                               ***Turning on DIIS***
  2   -399.9138140257  -0.000047134054 0.00439038  0.00009709  0.0023134 0.0000
  3   -399.9138762661  -0.000062240384 0.00123558  0.00003281  0.0017792 0.0000
  4   -399.9138875143  -0.000011248224 0.00095456  0.00001917  0.0009180 0.0000
  5   -399.9138903488  -0.000002834524 0.00028174  0.00000636  0.0002389 0.0000
  6   -399.9138906142  -0.000000265389 0.00007007  0.00000168  0.0000662 0.0000
  7   -399.9138906236  -0.000000009378 0.00000979  0.00000019  0.0000082 0.0000
  8   -399.9138906238  -0.000000000188 0.00000604  0.00000013  0.0000003 0.0000
                 **** Energy Check signals convergence ****

               *****************************************************
               *                     SUCCESS                       *
               *           SCF CONVERGED AFTER   9 CYCLES          *
               *****************************************************


----------------
TOTAL SCF ENERGY
----------------

Total Energy       :         -399.91389062 Eh          -10882.21020 eV

Components:
Nuclear Repulsion  :           19.58656162 Eh             532.97744 eV
Electronic Energy  :         -419.50045225 Eh          -11415.18764 eV
One Electron Energy:         -598.10178948 Eh          -16275.17711 eV
Two Electron Energy:          178.60133723 Eh            4859.98946 eV

Virial components:
Potential Energy   :         -799.42578923 Eh          -21753.48165 eV
Kinetic Energy     :          399.51189860 Eh           10871.27145 eV
Virial Ratio       :            2.00100621


DFT components:
N(Alpha)           :       11.999999823743 electrons
N(Beta)            :       11.999999823743 electrons
N(Total)           :       23.999999647485 electrons
E(X)               :      -31.804099790891 Eh       
E(C)               :       -0.822326832752 Eh       
E(XC)              :      -32.626426623644 Eh       
DFET-embed. en.    :        0.000000000000 Eh       

---------------
SCF CONVERGENCE
---------------

  Last Energy change         ...    2.6148e-12  Tolerance :   1.0000e-09
  Last MAX-Density change    ...    3.6752e-07  Tolerance :   1.0000e-08
  Last RMS-Density change    ...    8.4705e-09  Tolerance :   1.0000e-09
  Last DIIS Error            ...    1.8563e-08  Tolerance :   1.0000e-08

             **** THE GBW FILE WAS UPDATED (mg2_pbe.gbw) ****
             **** DENSITY FILE WAS UPDATED (mg2_pbe.scfp.tmp) ****
             **** ENERGY FILE WAS UPDATED (mg2_pbe.en.tmp) ****
----------------------
UHF SPIN CONTAMINATION
----------------------

Warning: in a DFT calculation there is little theoretical justification to 
         calculate <S**2> as in Hartree-Fock theory. We will do it anyways
         but you should keep in mind that the values have only limited relevance

Expectation value of <S**2>     :     0.000000
Ideal value S*(S+1) for S=0.0   :     0.000000
Deviation                       :     0.000000

----------------
ORBITAL ENERGIES
----------------
                 SPIN UP ORBITALS
  NO   OCC          E(Eh)            E(eV) 
   0   1.0000     -46.189394     -1256.8773 
   1   1.0000     -46.189394     -1256.8773 
   2   1.0000      -2.923354       -79.5485 
   3   1.0000      -2.923353       -79.5485 
   4   1.0000      -1.714143       -46.6442 
   5   1.0000      -1.714143       -46.6442 
   6   1.0000      -1.714141       -46.6441 
   7   1.0000      -1.714141       -46.6441 
   8   1.0000      -1.713677       -46.6315 
   9   1.0000      -1.713654       -46.6309 
  10   1.0000      -0.192651        -5.2423 
  11   1.0000      -0.157711        -4.2915 
  12   0.0000      -0.068279        -1.8580 
  13   0.0000      -0.063364        -1.7242 
  14   0.0000      -0.063364        -1.7242 
  15   0.0000      -0.034572        -0.9408 
  16   0.0000      -0.034572        -0.9408 
  17   0.0000      -0.007785        -0.2118 
  18   0.0000      -0.001925        -0.0524 
  19   0.0000       0.015626         0.4252 
  20   0.0000       0.015626         0.4252 
  21   0.0000       0.017356         0.4723 
  22   0.0000       0.020449         0.5564 
  23   0.0000       0.024454         0.6654 
  24   0.0000       0.024454         0.6654 
  25   0.0000       0.033079         0.9001 
  26   0.0000       0.039873         1.0850 
  27   0.0000       0.039873         1.0850 
  28   0.0000       0.051201         1.3933 
  29   0.0000       0.052027         1.4157 
  30   0.0000       0.052027         1.4157 
  31   0.0000       0.065438         1.7807 
  32   0.0000       0.070269         1.9121 
  33   0.0000       0.070269         1.9121 
  34   0.0000       0.070300         1.9130 
  35   0.0000       0.084547         2.3006 
  36   0.0000       0.084547         2.3006 
  37   0.0000       0.085896         2.3374 
  38   0.0000       0.085896         2.3374 
  39   0.0000       0.092039         2.5045 
  40   0.0000       0.109340         2.9753 
  41   0.0000       0.109340         2.9753 
  42   0.0000       0.117173         3.1885 
  43   0.0000       0.133219         3.6251 
  44   0.0000       0.133219         3.6251 
  45   0.0000       0.146347         3.9823 
  46   0.0000       0.146347         3.9823 
  47   0.0000       0.166897         4.5415 
  48   0.0000       0.166897         4.5415 
  49   0.0000       0.167440         4.5563 
  50   0.0000       0.176000         4.7892 
  51   0.0000       0.178024         4.8443 
  52   0.0000       0.178024         4.8443 
  53   0.0000       0.205741         5.5985 
  54   0.0000       0.208064         5.6617 
  55   0.0000       0.210846         5.7374 
  56   0.0000       0.210846         5.7374 
  57   0.0000       0.217582         5.9207 
  58   0.0000       0.217582         5.9207 
  59   0.0000       0.234889         6.3916 
  60   0.0000       0.237376         6.4593 
  61   0.0000       0.237376         6.4593 
  62   0.0000       0.238751         6.4967 
  63   0.0000       0.238751         6.4967 
  64   0.0000       0.254624         6.9287 
  65   0.0000       0.254624         6.9287 
  66   0.0000       0.258731         7.0404 
  67   0.0000       0.258731         7.0404 
  68   0.0000       0.271596         7.3905 
  69   0.0000       0.271596         7.3905 
  70   0.0000       0.276768         7.5312 
  71   0.0000       0.276768         7.5312 
  72   0.0000       0.280294         7.6272 
  73   0.0000       0.296387         8.0651 
  74   0.0000       0.296387         8.0651 
  75   0.0000       0.330572         8.9953 
  76   0.0000       0.330572         8.9953 
  77   0.0000       0.337823         9.1926 
  78   0.0000       0.354955         9.6588 
  79   0.0000       0.354955         9.6588 
  80   0.0000       0.359688         9.7876 
  81   0.0000       0.360922         9.8212 
  82   0.0000       0.360922         9.8212 
  83   0.0000       0.376212        10.2372 
  84   0.0000       0.376212        10.2372 
  85   0.0000       0.394003        10.7214 
  86   0.0000       0.394003        10.7214 
  87   0.0000       0.414038        11.2666 
  88   0.0000       0.471427        12.8282 
  89   0.0000       0.471427        12.8282 
  90   0.0000       0.512388        13.9428 
  91   0.0000       0.512388        13.9428 
  92   0.0000       0.557186        15.1618 
  93   0.0000       0.564992        15.3742 
  94   0.0000       0.657521        17.8921 
  95   0.0000       0.668079        18.1793 
  96   0.0000       0.877228        23.8706 
  97   0.0000       0.903948        24.5977 
  98   0.0000       0.903948        24.5977 
  99   0.0000       0.951271        25.8854 
 100   0.0000       0.951271        25.8854 
 101   0.0000       0.954337        25.9688 
 102   0.0000       0.954337        25.9688 
 103   0.0000       0.961713        26.1695 
 104   0.0000       0.961713        26.1695 
 105   0.0000       0.970525        26.4093 
 106   0.0000       0.970525        26.4093 
 107   0.0000       0.975741        26.5513 
 108   0.0000       0.975741        26.5513 
 109   0.0000       0.984374        26.7862 
 110   0.0000       0.984374        26.7862 
 111   0.0000       0.987380        26.8680 
 112   0.0000       1.008978        27.4557 
 113   0.0000       1.008978        27.4557 
 114   0.0000       1.026326        27.9277 
 115   0.0000       1.150500        31.3067 
 116   0.0000       1.508152        41.0389 
 117   0.0000       1.508152        41.0389 
 118   0.0000       1.528462        41.5916 
 119   0.0000       1.552399        42.2429 
 120   0.0000       1.552400        42.2429 
 121   0.0000       1.554595        42.3027 
 122   0.0000       1.554596        42.3027 
 123   0.0000       1.558187        42.4004 
 124   0.0000       1.558188        42.4004 
 125   0.0000       1.558287        42.4031 
 126   0.0000       1.558287        42.4031 
 127   0.0000       1.562264        42.5114 
 128   0.0000       1.562264        42.5114 
 129   0.0000       1.574735        42.8507 
 130   0.0000       1.574735        42.8507 
 131   0.0000       1.620551        44.0974 
 132   0.0000       1.620551        44.0974 
 133   0.0000       1.651173        44.9307 
 134   0.0000       1.708701        46.4961 
 135   0.0000       1.708702        46.4961 
 136   0.0000       1.709371        46.5143 
 137   0.0000       1.709372        46.5144 
 138   0.0000       1.760234        47.8984 
 139   0.0000       1.760234        47.8984 
 140   0.0000       1.781637        48.4808 
 141   0.0000       1.781637        48.4808 
 142   0.0000       1.825040        49.6619 
 143   0.0000       1.878696        51.1219 
 144   0.0000       4.655071       126.6709 
 145   0.0000       4.665717       126.9606 
 146   0.0000       4.665717       126.9606 
 147   0.0000       4.667969       127.0219 
 148   0.0000       4.667969       127.0219 
 149   0.0000       4.671133       127.1080 
 150   0.0000       4.671133       127.1080 
 151   0.0000       4.673008       127.1590 
 152   0.0000       4.673008       127.1590 
 153   0.0000       4.676871       127.2641 
 154   0.0000       4.676871       127.2641 
 155   0.0000       4.679161       127.3264 
 156   0.0000       4.679161       127.3264 
 157   0.0000       4.694126       127.7337 
 158   0.0000       4.798186       130.5653 
 159   0.0000       4.857989       132.1926 
 160   0.0000       7.556287       205.6170 
 161   0.0000       7.556290       205.6171 
 162   0.0000       7.557067       205.6382 
 163   0.0000       7.557070       205.6383 
 164   0.0000       7.581467       206.3022 
 165   0.0000       7.581467       206.3022 
 166   0.0000       7.595639       206.6878 
 167   0.0000       7.595639       206.6878 
 168   0.0000       7.612014       207.1334 
 169   0.0000       7.634360       207.7415 

                 SPIN DOWN ORBITALS
  NO   OCC          E(Eh)            E(eV) 
   0   1.0000     -46.189394     -1256.8773 
   1   1.0000     -46.189394     -1256.8773 
   2   1.0000      -2.923354       -79.5485 
   3   1.0000      -2.923353       -79.5485 
   4   1.0000      -1.714143       -46.6442 
   5   1.0000      -1.714143       -46.6442 
   6   1.0000      -1.714141       -46.6441 
   7   1.0000      -1.714141       -46.6441 
   8   1.0000      -1.713677       -46.6315 
   9   1.0000      -1.713654       -46.6309 
  10   1.0000      -0.192651        -5.2423 
  11   1.0000      -0.157711        -4.2915 
  12   0.0000      -0.068279        -1.8580 
  13   0.0000      -0.063364        -1.7242 
  14   0.0000      -0.063364        -1.7242 
  15   0.0000      -0.034572        -0.9408 
  16   0.0000      -0.034572        -0.9408 
  17   0.0000      -0.007785        -0.2118 
  18   0.0000      -0.001925        -0.0524 
  19   0.0000       0.015626         0.4252 
  20   0.0000       0.015626         0.4252 
  21   0.0000       0.017356         0.4723 
  22   0.0000       0.020449         0.5564 
  23   0.0000       0.024454         0.6654 
  24   0.0000       0.024454         0.6654 
  25   0.0000       0.033079         0.9001 
  26   0.0000       0.039873         1.0850 
  27   0.0000       0.039873         1.0850 
  28   0.0000       0.051201         1.3933 
  29   0.0000       0.052027         1.4157 
  30   0.0000       0.052027         1.4157 
  31   0.0000       0.065438         1.7807 
  32   0.0000       0.070269         1.9121 
  33   0.0000       0.070269         1.9121 
  34   0.0000       0.070300         1.9130 
  35   0.0000       0.084547         2.3006 
  36   0.0000       0.084547         2.3006 
  37   0.0000       0.085896         2.3374 
  38   0.0000       0.085896         2.3374 
  39   0.0000       0.092039         2.5045 
  40   0.0000       0.109340         2.9753 
  41   0.0000       0.109340         2.9753 
  42   0.0000       0.117173         3.1885 
  43   0.0000       0.133219         3.6251 
  44   0.0000       0.133219         3.6251 
  45   0.0000       0.146347         3.9823 
  46   0.0000       0.146347         3.9823 
  47   0.0000       0.166897         4.5415 
  48   0.0000       0.166897         4.5415 
  49   0.0000       0.167440         4.5563 
  50   0.0000       0.176000         4.7892 
  51   0.0000       0.178024         4.8443 
  52   0.0000       0.178024         4.8443 
  53   0.0000       0.205741         5.5985 
  54   0.0000       0.208064         5.6617 
  55   0.0000       0.210846         5.7374 
  56   0.0000       0.210846         5.7374 
  57   0.0000       0.217582         5.9207 
  58   0.0000       0.217582         5.9207 
  59   0.0000       0.234889         6.3916 
  60   0.0000       0.237376         6.4593 
  61   0.0000       0.237376         6.4593 
  62   0.0000       0.238751         6.4967 
  63   0.0000       0.238751         6.4967 
  64   0.0000       0.254624         6.9287 
  65   0.0000       0.254624         6.9287 
  66   0.0000       0.258731         7.0404 
  67   0.0000       0.258731         7.0404 
  68   0.0000       0.271596         7.3905 
  69   0.0000       0.271596         7.3905 
  70   0.0000       0.276768         7.5312 
  71   0.0000       0.276768         7.5312 
  72   0.0000       0.280294         7.6272 
  73   0.0000       0.296387         8.0651 
  74   0.0000       0.296387         8.0651 
  75   0.0000       0.330572         8.9953 
  76   0.0000       0.330572         8.9953 
  77   0.0000       0.337823         9.1926 
  78   0.0000       0.354955         9.6588 
  79   0.0000       0.354955         9.6588 
  80   0.0000       0.359688         9.7876 
  81   0.0000       0.360922         9.8212 
  82   0.0000       0.360922         9.8212 
  83   0.0000       0.376212        10.2372 
  84   0.0000       0.376212        10.2372 
  85   0.0000       0.394003        10.7214 
  86   0.0000       0.394003        10.7214 
  87   0.0000       0.414038        11.2666 
  88   0.0000       0.471427        12.8282 
  89   0.0000       0.471427        12.8282 
  90   0.0000       0.512388        13.9428 
  91   0.0000       0.512388        13.9428 
  92   0.0000       0.557186        15.1618 
  93   0.0000       0.564992        15.3742 
  94   0.0000       0.657521        17.8921 
  95   0.0000       0.668079        18.1793 
  96   0.0000       0.877228        23.8706 
  97   0.0000       0.903948        24.5977 
  98   0.0000       0.903948        24.5977 
  99   0.0000       0.951271        25.8854 
 100   0.0000       0.951271        25.8854 
 101   0.0000       0.954337        25.9688 
 102   0.0000       0.954337        25.9688 
 103   0.0000       0.961713        26.1695 
 104   0.0000       0.961713        26.1695 
 105   0.0000       0.970525        26.4093 
 106   0.0000       0.970525        26.4093 
 107   0.0000       0.975741        26.5513 
 108   0.0000       0.975741        26.5513 
 109   0.0000       0.984374        26.7862 
 110   0.0000       0.984374        26.7862 
 111   0.0000       0.987380        26.8680 
 112   0.0000       1.008978        27.4557 
 113   0.0000       1.008978        27.4557 
 114   0.0000       1.026326        27.9277 
 115   0.0000       1.150500        31.3067 
 116   0.0000       1.508152        41.0389 
 117   0.0000       1.508152        41.0389 
 118   0.0000       1.528462        41.5916 
 119   0.0000       1.552399        42.2429 
 120   0.0000       1.552400        42.2429 
 121   0.0000       1.554595        42.3027 
 122   0.0000       1.554596        42.3027 
 123   0.0000       1.558187        42.4004 
 124   0.0000       1.558188        42.4004 
 125   0.0000       1.558287        42.4031 
 126   0.0000       1.558287        42.4031 
 127   0.0000       1.562264        42.5114 
 128   0.0000       1.562264        42.5114 
 129   0.0000       1.574735        42.8507 
 130   0.0000       1.574735        42.8507 
 131   0.0000       1.620551        44.0974 
 132   0.0000       1.620551        44.0974 
 133   0.0000       1.651173        44.9307 
 134   0.0000       1.708701        46.4961 
 135   0.0000       1.708702        46.4961 
 136   0.0000       1.709371        46.5143 
 137   0.0000       1.709372        46.5144 
 138   0.0000       1.760234        47.8984 
 139   0.0000       1.760234        47.8984 
 140   0.0000       1.781637        48.4808 
 141   0.0000       1.781637        48.4808 
 142   0.0000       1.825040        49.6619 
 143   0.0000       1.878696        51.1219 
 144   0.0000       4.655071       126.6709 
 145   0.0000       4.665717       126.9606 
 146   0.0000       4.665717       126.9606 
 147   0.0000       4.667969       127.0219 
 148   0.0000       4.667969       127.0219 
 149   0.0000       4.671133       127.1080 
 150   0.0000       4.671133       127.1080 
 151   0.0000       4.673008       127.1590 
 152   0.0000       4.673008       127.1590 
 153   0.0000       4.676871       127.2641 
 154   0.0000       4.676871       127.2641 
 155   0.0000       4.679161       127.3264 
 156   0.0000       4.679161       127.3264 
 157   0.0000       4.694126       127.7337 
 158   0.0000       4.798186       130.5653 
 159   0.0000       4.857989       132.1926 
 160   0.0000       7.556287       205.6170 
 161   0.0000       7.556290       205.6171 
 162   0.0000       7.557067       205.6382 
 163   0.0000       7.557070       205.6383 
 164   0.0000       7.581467       206.3022 
 165   0.0000       7.581467       206.3022 
 166   0.0000       7.595639       206.6878 
 167   0.0000       7.595639       206.6878 
 168   0.0000       7.612014       207.1334 
 169   0.0000       7.634360       207.7415 

                    ********************************
                    * MULLIKEN POPULATION ANALYSIS *
                    ********************************

--------------------------------------------
MULLIKEN ATOMIC CHARGES AND SPIN POPULATIONS
--------------------------------------------
   0 Mg:    0.000001   -0.000000
   1 Mg:   -0.000001    0.000000
Sum of atomic charges         :    0.0000000
Sum of atomic spin populations:    0.0000000

-----------------------------------------------------
MULLIKEN REDUCED ORBITAL CHARGES AND SPIN POPULATIONS
-----------------------------------------------------
CHARGE
  0 Mgs       :     5.883367  s :     5.883367
      pz      :     2.091717  p :     6.091733
      px      :     2.000008
      py      :     2.000008
      dz2     :     0.021861  d :     0.021850
      dxz     :    -0.000005
      dyz     :    -0.000005
      dx2y2   :     0.000000
      dxy     :     0.000000
      f0      :     0.003251  f :     0.003245
      f+1     :    -0.000003
      f-1     :    -0.000003
      f+2     :    -0.000000
      f-2     :    -0.000000
      f+3     :     0.000000
      f-3     :     0.000000
      g0      :    -0.000198  g :    -0.000197
      g+1     :     0.000001
      g-1     :     0.000001
      g+2     :     0.000000
      g-2     :    -0.000000
      g+3     :     0.000000
      g-3     :     0.000000
      g+4     :     0.000000
      g-4     :     0.000000
  1 Mgs       :     5.883369  s :     5.883369
      pz      :     2.091718  p :     6.091733
      px      :     2.000008
      py      :     2.000008
      dz2     :     0.021861  d :     0.021850
      dxz     :    -0.000005
      dyz     :    -0.000005
      dx2y2   :     0.000000
      dxy     :     0.000000
      f0      :     0.003251  f :     0.003245
      f+1     :    -0.000003
      f-1     :    -0.000003
      f+2     :    -0.000000
      f-2     :    -0.000000
      f+3     :     0.000000
      f-3     :     0.000000
      g0      :    -0.000198  g :    -0.000197
      g+1     :     0.000001
      g-1     :     0.000001
      g+2     :    -0.000000
      g-2     :    -0.000000
      g+3     :     0.000000
      g-3     :     0.000000
      g+4     :     0.000000
      g-4     :     0.000000

SPIN
  0 Mgs       :    -0.000000  s :    -0.000000
      pz      :    -0.000000  p :    -0.000000
      px      :     0.000000
      py      :    -0.000000
      dz2     :    -0.000000  d :    -0.000000
      dxz     :    -0.000000
      dyz     :     0.000000
      dx2y2   :    -0.000000
      dxy     :     0.000000
      f0      :    -0.000000  f :    -0.000000
      f+1     :    -0.000000
      f-1     :     0.000000
      f+2     :    -0.000000
      f-2     :     0.000000
      f+3     :     0.000000
      f-3     :     0.000000
      g0      :    -0.000000  g :    -0.000000
      g+1     :    -0.000000
      g-1     :     0.000000
      g+2     :     0.000000
      g-2     :    -0.000000
      g+3     :     0.000000
      g-3     :    -0.000000
      g+4     :    -0.000000
      g-4     :    -0.000000
  1 Mgs       :     0.000000  s :     0.000000
      pz      :    -0.000000  p :    -0.000000
      px      :     0.000000
      py      :     0.000000
      dz2     :    -0.000000  d :    -0.000000
      dxz     :    -0.000000
      dyz     :     0.000000
      dx2y2   :     0.000000
      dxy     :    -0.000000
      f0      :    -0.000000  f :    -0.000000
      f+1     :    -0.000000
      f-1     :     0.000000
      f+2     :     0.000000
      f-2     :     0.000000
      f+3     :     0.000000
      f-3     :    -0.000000
      g0      :     0.000000  g :     0.000000
      g+1     :     0.000000
      g-1     :     0.000000
      g+2     :    -0.000000
      g-2     :     0.000000
      g+3     :     0.000000
      g-3     :     0.000000
      g+4     :     0.000000
      g-4     :    -0.000000


                     *******************************
                     * LOEWDIN POPULATION ANALYSIS *
                     *******************************

-------------------------------------------
LOEWDIN ATOMIC CHARGES AND SPIN POPULATIONS
-------------------------------------------
   0 Mg:    0.000000   -0.000000
   1 Mg:   -0.000000    0.000000

----------------------------------------------------
LOEWDIN REDUCED ORBITAL CHARGES AND SPIN POPULATIONS
----------------------------------------------------
CHARGE
  0 Mgs       :     5.528754  s :     5.528754
      pz      :     2.254388  p :     6.253287
      px      :     1.999450
      py      :     1.999450
      dz2     :     0.121326  d :     0.121382
      dxz     :     0.000028
      dyz     :     0.000028
      dx2y2   :     0.000000
      dxy     :     0.000000
      f0      :     0.066150  f :     0.066400
      f+1     :     0.000125
      f-1     :     0.000125
      f+2     :     0.000000
      f-2     :     0.000000
      f+3     :     0.000000
      f-3     :     0.000000
      g0      :     0.029383  g :     0.030177
      g+1     :     0.000397
      g-1     :     0.000397
      g+2     :     0.000000
      g-2     :     0.000000
      g+3     :     0.000000
      g-3     :     0.000000
      g+4     :     0.000000
      g-4     :     0.000000
  1 Mgs       :     5.528754  s :     5.528754
      pz      :     2.254388  p :     6.253287
      px      :     1.999450
      py      :     1.999450
      dz2     :     0.121326  d :     0.121382
      dxz     :     0.000028
      dyz     :     0.000028
      dx2y2   :     0.000000
      dxy     :     0.000000
      f0      :     0.066150  f :     0.066400
      f+1     :     0.000125
      f-1     :     0.000125
      f+2     :     0.000000
      f-2     :     0.000000
      f+3     :     0.000000
      f-3     :     0.000000
      g0      :     0.029383  g :     0.030177
      g+1     :     0.000397
      g-1     :     0.000397
      g+2     :     0.000000
      g-2     :     0.000000
      g+3     :     0.000000
      g-3     :     0.000000
      g+4     :     0.000000
      g-4     :     0.000000

SPIN
  0 Mgs       :    -0.000000  s :    -0.000000
      pz      :    -0.000000  p :    -0.000000
      px      :     0.000000
      py      :    -0.000000
      dz2     :    -0.000000  d :    -0.000000
      dxz     :     0.000000
      dyz     :     0.000000
      dx2y2   :    -0.000000
      dxy     :     0.000000
      f0      :     0.000000  f :     0.000000
      f+1     :     0.000000
      f-1     :     0.000000
      f+2     :    -0.000000
      f-2     :     0.000000
      f+3     :     0.000000
      f-3     :     0.000000
      g0      :    -0.000000  g :    -0.000000
      g+1     :     0.000000
      g-1     :     0.000000
      g+2     :     0.000000
      g-2     :    -0.000000
      g+3     :     0.000000
      g-3     :    -0.000000
      g+4     :    -0.000000
      g-4     :    -0.000000
  1 Mgs       :     0.000000  s :     0.000000
      pz      :     0.000000  p :     0.000000
      px      :    -0.000000
      py      :     0.000000
      dz2     :     0.000000  d :     0.000000
      dxz     :    -0.000000
      dyz     :     0.000000
      dx2y2   :     0.000000
      dxy     :    -0.000000
      f0      :     0.000000  f :     0.000000
      f+1     :     0.000000
      f-1     :     0.000000
      f+2     :     0.000000
      f-2     :     0.000000
      f+3     :     0.000000
      f-3     :    -0.000000
      g0      :    -0.000000  g :    -0.000000
      g+1     :     0.000000
      g-1     :    -0.000000
      g+2     :    -0.000000
      g-2     :     0.000000
      g+3     :     0.000000
      g-3     :     0.000000
      g+4     :     0.000000
      g-4     :    -0.000000


                      *****************************
                      * MAYER POPULATION ANALYSIS *
                      *****************************

  NA   - Mulliken gross atomic population
  ZA   - Total nuclear charge
  QA   - Mulliken gross atomic charge
  VA   - Mayer's total valence
  BVA  - Mayer's bonded valence
  FA   - Mayer's free valence

  ATOM       NA         ZA         QA         VA         BVA        FA
  0 Mg    12.0000    12.0000     0.0000     0.4667     0.4667     0.0000
  1 Mg    12.0000    12.0000    -0.0000     0.4667     0.4667     0.0000

  Mayer bond orders larger than 0.1
B(  0-Mg,  1-Mg) :   0.4667 

-------
TIMINGS
-------

Total SCF time: 0 days 0 hours 2 min 35 sec 

Total time                  ....     155.456 sec
Sum of individual times     ....     154.977 sec  ( 99.7%)

Fock matrix formation       ....     152.154 sec  ( 97.9%)
  XC integration            ....      14.138 sec  (  9.3% of F)
    Basis function eval.    ....       2.309 sec  ( 16.3% of XC)
    Density eval.           ....       3.088 sec  ( 21.8% of XC)
    XC-Functional eval.     ....       0.509 sec  (  3.6% of XC)
    XC-Potential eval.      ....       7.926 sec  ( 56.1% of XC)
Diagonalization             ....       0.126 sec  (  0.1%)
Density matrix formation    ....       0.004 sec  (  0.0%)
Population analysis         ....       0.027 sec  (  0.0%)
Initial guess               ....       1.000 sec  (  0.6%)
Orbital Transformation      ....       0.000 sec  (  0.0%)
Orbital Orthonormalization  ....       0.000 sec  (  0.0%)
DIIS solution               ....       0.082 sec  (  0.1%)
Grid generation             ....       1.585 sec  (  1.0%)

-------------------------   --------------------
FINAL SINGLE POINT ENERGY      -399.913890623774
-------------------------   --------------------


                            ***************************************
                            *     ORCA property calculations      *
                            ***************************************

                                    ---------------------
                                    Active property flags
                                    ---------------------
   (+) Dipole Moment
   (+) Polarizability


------------------------------------------------------------------------------
                       ORCA ELECTRIC PROPERTIES CALCULATION
------------------------------------------------------------------------------

Dipole Moment Calculation                       ... on
Quadrupole Moment Calculation                   ... off
Polarizability Calculation                      ... Analytic (CP-SCF)
GBWName                                         ... mg2_pbe.gbw
Electron density file                           ... mg2_pbe.scfp.tmp
The origin for moment calculation is the CENTER OF MASS  = ( 0.000000,  0.000000  3.675990)

-------------
DIPOLE MOMENT
-------------
                                X             Y             Z
Electronic contribution:      0.00000       0.00000      -0.00000
Nuclear contribution   :      0.00000       0.00000       0.00000
                        -----------------------------------------
Total Dipole Moment    :      0.00000       0.00000      -0.00000
                        -----------------------------------------
Magnitude (a.u.)       :      0.00000
Magnitude (Debye)      :      0.00000



--------------------
Rotational spectrum 
--------------------
 
Rotational constants in cm-1:     0.000000     0.091647     0.091647 
Rotational constants in MHz :     0.000000  2747.521724  2747.521724 

 Dipole components along the rotational axes: 
x,y,z [a.u.] :    -0.000000     0.000000     0.000000 
x,y,z [Debye]:    -0.000000     0.000000     0.000000 

 
Transforming and storing MO dipole integrals   ... done

                ... starting polarizability calculation

Opening the Dipole integral file               ... (mg2_pbe.dmo.tmp) done
Reading Dipole-MO integrals                    ... done
Solving CP-SCF equations                       ... 
------------------------------------------------------------------------------
                           ORCA CP-SCF CALCULATION
------------------------------------------------------------------------------

Input orbitals are from        ... mg2_pbe.gbw
Input Perturbation             ... mg2_pbe.cpv.tmp
Wavefunction output            ... mg2_pbe.cpu.tmp
Perturbation mode              ... Real perturbation (singlet)
Solver                         ... POPLE
Max. number of iterations      ... 200
Convergence tolerance          ... 1.000e-06
Integral handling              ... Direct
Number of perturbations        ... 3
Number of operators            ... 2
Orbital ranges used for CP-SCF:
 Operator 0:  Orbitals   0... 11  to  12...169
 Operator 1:  Orbitals   0... 11  to  12...169
DFT calculation                         ... on
Exchange functional (SCF)               ... PBE
Exchange functional (CP-SCF)            ... PBE
   PBE kappa parameter  XKappa (SCF)    ...  0.804000
   PBE kappa parameter  XKappa (CP-SCF) ...  0.804000
   PBE mue parameter   XMuePBE (SCF)    ...  0.219520
   PBE mue parameter   XMuePBE (CP-SCF) ...  0.219520
Correlation functional (SCF)            ... PBE
Correlation functional (CP-SCF)         ... PBE
   PBE beta parameter CBetaPBE (SCF)    ...  0.066725
   PBE beta parameter CBetaPBE (CP-SCF) ...  0.066725
 LDA part of GGA corr.  LDAOpt (SCF)    ... PW91-LDA
 LDA part of GGA corr.  LDAOpt (CP-SCF) ... PW91-LDA
Variables per vector in CP-SCF ... 3792
Number of vectors sought       ... 3
Recalculating density on grid  ... done
Calculating the xc-kernel      ... done
     CP-SCF ITERATION   0: 
     CP-SCF ITERATION   1:      0.313557363507
     CP-SCF ITERATION   2:      0.003834734116
     CP-SCF ITERATION   3:      0.000090147673
     CP-SCF ITERATION   4:      0.000002571500
     CP-SCF ITERATION   5:      0.000000821555
done
Reading CP-SCF coefficients                    ... done
Doing the polarizability tensor   ... done
Cleaning up                                    ... done

-------------------------
THE POLARIZABILITY TENSOR
-------------------------

The raw cartesian tensor (atomic units):
  127.09507      0.00000     -0.00000  
    0.00000    127.09507     -0.00000  
   -0.00000     -0.00000    241.87488  
diagonalized tensor: 
  127.09507    127.09507    241.87488  

    0.68211     -0.73125     -0.00000  
   -0.73125     -0.68211     -0.00000  
    0.00000     -0.00000      1.00000  

Isotropic polarizability : 165.35501


Timings for individual modules:

Sum of individual times         ...      304.774 sec (=   5.080 min)
GTO integral calculation        ...        5.852 sec (=   0.098 min)   1.9 %
SCF iterations                  ...      158.859 sec (=   2.648 min)  52.1 %
Solution of CP-SCF eqns.        ...      140.063 sec (=   2.334 min)  46.0 %
                             ****ORCA TERMINATED NORMALLY****
TOTAL RUN TIME: 0 days 0 hours 5 minutes 5 seconds 165 msec
