
                                 *****************
                                 * O   R   C   A *
                                 *****************

           --- An Ab Initio, DFT and Semiempirical electronic structure package ---

                  #######################################################
                  #                        -***-                        #
                  #          Department of theory and spectroscopy      #
                  #               Directorship: Frank Neese             #
                  #        Max Planck Institute fuer Kohlenforschung    #
                  #                Kaiser Wilhelm Platz 1               #
                  #                 D-45470 Muelheim/Ruhr               #
                  #                      Germany                        #
                  #                                                     #
                  #                  All rights reserved                #
                  #                        -***-                        #
                  #######################################################


                         Program Version 4.1.2  - RELEASE  -


 With contributions from (in alphabetic order):
   Daniel Aravena         : Magnetic Properties
   Michael Atanasov       : Ab Initio Ligand Field Theory
   Alexander A. Auer      : GIAO ZORA
   Ute Becker             : Parallelization
   Giovanni Bistoni       : ED, Open-shell LED
   Martin Brehm           : Molecular dynamics
   Dmytro Bykov           : SCF Hessian
   Vijay G. Chilkuri      : MRCI spin determinant printing
   Dipayan Datta          : RHF DLPNO-CCSD density
   Achintya Kumar Dutta   : EOM-CC, STEOM-CC
   Dmitry Ganyushin       : Spin-Orbit,Spin-Spin,Magnetic field MRCI
   Miquel Garcia          : C-PCM Hessian
   Yang Guo               : DLPNO-NEVPT2, CIM, IAO-localization
   Andreas Hansen         : Spin unrestricted coupled pair/coupled cluster methods
   Benjamin Helmich-Paris : CASSCF linear response (MC-RPA)
   Lee Huntington         : MR-EOM, pCC
   Robert Izsak           : Overlap fitted RIJCOSX, COSX-SCS-MP3, EOM
   Christian Kollmar      : KDIIS, OOCD, Brueckner-CCSD(T), CCSD density
   Simone Kossmann        : Meta GGA functionals, TD-DFT gradient, OOMP2, MP2 Hessian
   Martin Krupicka        : AUTO-CI
   Lucas Lang             : DCDCAS
   Dagmar Lenk            : GEPOL surface, SMD
   Dimitrios Liakos       : Extrapolation schemes; parallel MDCI
   Dimitrios Manganas     : ROCIS; embedding schemes
   Dimitrios Pantazis     : SARC Basis sets
   Taras Petrenko         : DFT Hessian,TD-DFT gradient, ASA, ECA, R-Raman, ABS, FL, XAS/XES, NRVS
   Peter Pinski           : DLPNO-MP2, DLPNO-MP2 Gradient
   Christoph Reimann      : Effective Core Potentials
   Marius Retegan         : Local ZFS, SOC
   Christoph Riplinger    : Optimizer, TS searches, QM/MM, DLPNO-CCSD(T), (RO)-DLPNO pert. Triples
   Tobias Risthaus        : Range-separated hybrids, TD-DFT gradient, RPA, STAB
   Michael Roemelt        : Restricted open shell CIS
   Masaaki Saitow         : Open-shell DLPNO
   Barbara Sandhoefer     : DKH picture change effects
   Avijit Sen             : IP-ROCIS
   Kantharuban Sivalingam : CASSCF convergence, NEVPT2, FIC-MRCI
   Bernardo de Souza      : ESD, SOC TD-DFT
   Georgi Stoychev        : AutoAux, RI-MP2 NMR
   Willem Van den Heuvel  : Paramagnetic NMR
   Boris Wezisla          : Elementary symmetry handling
   Frank Wennmohs         : Technical directorship


 We gratefully acknowledge several colleagues who have allowed us to
 interface, adapt or use parts of their codes:
   Stefan Grimme, W. Hujo, H. Kruse,             : VdW corrections, initial TS optimization,
                  C. Bannwarth                     DFT functionals, gCP, sTDA/sTD-DF
   Ed Valeev                                     : LibInt (2-el integral package), F12 methods
   Garnet Chan, S. Sharma, J. Yang, R. Olivares  : DMRG
   Ulf Ekstrom                                   : XCFun DFT Library
   Mihaly Kallay                                 : mrcc  (arbitrary order and MRCC methods)
   Andreas Klamt, Michael Diedenhofen            : otool_cosmo (COSMO solvation model)
   Jiri Pittner, Ondrej Demel                    : Mk-CCSD
   Frank Weinhold                                : gennbo (NPA and NBO analysis)
   Christopher J. Cramer and Donald G. Truhlar   : smd solvation model
   Lars Goerigk                                  : TD-DFT with DH, B97 family of functionals
   V. Asgeirsson, H. Jonsson                     : NEB implementation
   FAccTs GmbH                                   : IRC, NEB, NEB-TS, Multilevel


 Your calculation uses the libint2 library for the computation of 2-el integrals
 For citations please refer to: http://libint.valeyev.net

 This ORCA versions uses:
   CBLAS   interface :  Fast vector & matrix operations
   LAPACKE interface :  Fast linear algebra routines
   SCALAPACK package :  Parallel linear algebra routines


----- Orbital basis set information -----
Your calculation utilizes the basis: aug-pc-4
   H, C-F              : F. Jensen, J. Chem. Phys. 115, 9113 (2001).
                         F. Jensen, J. Chem. Phys. 116, 7372 (2002).
                         F. Jensen, J. Chem. Phys. 117, 9234 (2002).
   Si-Cl               : F. Jensen, T. Helgaker, J. Chem. Phys. 121, 3463 (2004).
   He-B, Ne-Mg, Al, Ar : F. Jensen, J. Phys. Chem. A 111, 11198 (2007).
   K, Ca, Ga-Kr        : F. Jensen, J. Chem. Phys. 136, 094110 (2012).
   Sc-Zn               : F. Jensen, J. Chem. Phys. 138, 014107 (2013).

================================================================================
                                        WARNINGS
                       Please study these warnings very carefully!
================================================================================


INFO   : the flag for use of LIBINT has been found!

================================================================================
                                       INPUT FILE
================================================================================
NAME = mg_pbe.inp
|  1> !uks pbe nori aug-pc-4 grid7 nofinalgrid verytightscf
|  2> 
|  3> %maxcore 1500
|  4> 
|  5> %pal nprocs 1 end
|  6> 
|  7> %scf
|  8> 	maxiter 200
|  9> end
| 10> %elprop
| 11> 	dipole true
| 12> 	 polar 1
| 13> 	 maxiter 200
| 14> end
| 15> 
| 16> * xyz 0 1
| 17> Mg 0.0 0.0 0.0
| 18> *
| 19> 
| 20>                          ****END OF INPUT****
================================================================================

                       ****************************
                       * Single Point Calculation *
                       ****************************

---------------------------------
CARTESIAN COORDINATES (ANGSTROEM)
---------------------------------
  Mg     0.000000    0.000000    0.000000

----------------------------
CARTESIAN COORDINATES (A.U.)
----------------------------
  NO LB      ZA    FRAG     MASS         X           Y           Z
   0 Mg   12.0000    0    24.305    0.000000    0.000000    0.000000

--------------------------------
INTERNAL COORDINATES (ANGSTROEM)
--------------------------------
 Mg     0   0   0     0.000000000000     0.00000000     0.00000000

---------------------------
INTERNAL COORDINATES (A.U.)
---------------------------
 Mg     0   0   0     0.000000000000     0.00000000     0.00000000

---------------------
BASIS SET INFORMATION
---------------------
There are 1 groups of distinct atoms

 Group   1 Type Mg  : 42s16p4d3f2g contracted to 8s6p4d3f2g pattern {15111111111/1111111/1111/111/11}

Atom   0Mg   basis set group =>   1
------------------------------------------------------------------------------
                           ORCA GTO INTEGRAL CALCULATION
------------------------------------------------------------------------------

                         BASIS SET STATISTICS AND STARTUP INFO

 # of primitive gaussian shells          ...   67
 # of primitive gaussian functions       ...  149
 # of contracted shells                  ...   23
 # of contracted basis functions         ...   85
 Highest angular momentum                ...    4
 Maximum contraction depth               ...   15
 Integral package used                   ... LIBINT
 Integral threshhold            Thresh   ...  1.000e-12
 Primitive cut-off              TCut     ...  1.000e-14


------------------------------ INTEGRAL EVALUATION ----------------------------


 * One electron integrals 
 Pre-screening matrix                    ... done
 Shell pair data                         ... done (   0.000 sec)

-------------------------------------------------------------------------------
                                 ORCA SCF
-------------------------------------------------------------------------------

------------
SCF SETTINGS
------------
Hamiltonian:
 Density Functional     Method          .... DFT(GTOs)
 Exchange Functional    Exchange        .... PBE
   PBE kappa parameter   XKappa         ....  0.804000
   PBE mue parameter    XMuePBE         ....  0.219520
 Correlation Functional Correlation     .... PBE
   PBE beta parameter  CBetaPBE         ....  0.066725
 LDA part of GGA corr.  LDAOpt          .... PW91-LDA
 Gradients option       PostSCFGGA      .... off
   Density functional embedding theory  .... OFF
   NL short-range parameter             ....  6.400000


General Settings:
 Integral files         IntName         .... mg_pbe
 Hartree-Fock type      HFTyp           .... UHF
 Total Charge           Charge          ....    0
 Multiplicity           Mult            ....    1
 Number of Electrons    NEL             ....   12
 Basis Dimension        Dim             ....   85
 Nuclear Repulsion      ENuc            ....      0.0000000000 Eh

Convergence Acceleration:
 DIIS                   CNVDIIS         .... on
   Start iteration      DIISMaxIt       ....    12
   Startup error        DIISStart       ....  0.200000
   # of expansion vecs  DIISMaxEq       ....     5
   Bias factor          DIISBfac        ....   1.050
   Max. coefficient     DIISMaxC        ....  10.000
 Newton-Raphson         CNVNR           .... off
 SOSCF                  CNVSOSCF        .... off
 Level Shifting         CNVShift        .... on
   Level shift para.    LevelShift      ....    0.2500
   Turn off err/grad.   ShiftErr        ....    0.0010
 Zerner damping         CNVZerner       .... off
 Static damping         CNVDamp         .... on
   Fraction old density DampFac         ....    0.7000
   Max. Damping (<1)    DampMax         ....    0.9800
   Min. Damping (>=0)   DampMin         ....    0.0000
   Turn off err/grad.   DampErr         ....    0.1000
 Fernandez-Rico         CNVRico         .... off

SCF Procedure:
 Maximum # iterations   MaxIter         ....   200
 SCF integral mode      SCFMode         .... Direct
   Integral package                     .... LIBINT
 Reset frequency        DirectResetFreq ....    20
 Integral Threshold     Thresh          ....  1.000e-12 Eh
 Primitive CutOff       TCut            ....  1.000e-14 Eh

Convergence Tolerance:
 Convergence Check Mode ConvCheckMode   .... Total+1el-Energy
 Convergence forced     ConvForced      .... 0
 Energy Change          TolE            ....  1.000e-09 Eh
 1-El. energy change                    ....  1.000e-06 Eh
 DIIS Error             TolErr          ....  1.000e-08


Diagonalization of the overlap matrix:
Smallest eigenvalue                        ... 1.197e-03
Time for diagonalization                   ...    0.108 sec
Threshold for overlap eigenvalues          ... 1.000e-08
Number of eigenvalues below threshold      ... 0
Time for construction of square roots      ...    0.004 sec
Total time needed                          ...    0.112 sec

-------------------
DFT GRID GENERATION
-------------------

General Integration Accuracy     IntAcc      ...  5.670
Radial Grid Type                 RadialGrid  ... Gauss-Chebyshev
Angular Grid (max. acc.)         AngularGrid ... Lebedev-770
Angular grid pruning method      GridPruning ... 3 (G Style)
Weight generation scheme         WeightScheme... Becke
Basis function cutoff            BFCut       ...    1.0000e-12
Integration weight cutoff        WCut        ...    1.0000e-14
Grids for H and He will be reduced by one unit

# of grid points (after initial pruning)     ...  26556 (   0.0 sec)
# of grid points (after weights+screening)   ...  26556 (   0.0 sec)
Grid point division into batches done        ...    0.6 sec
Reduced shell lists constructed in    0.7 sec

Total number of grid points                  ...    26556
Total number of batches                      ...      415
Average number of points per batch           ...       63
Average number of grid points per atom       ...    26556
Average number of shells per batch           ...    19.43 (84.47%)
Average number of basis functions per batch  ...    72.18 (84.92%)
Average number of large shells per batch     ...    18.16 (93.47%)
Average number of large basis fcns per batch ...    67.07 (92.91%)
Maximum spatial batch extension              ...  20.68, 20.68, 20.68 au
Average spatial batch extension              ...   4.21,  4.21,  4.18 au

Time for grid setup =    0.706 sec

------------------------------
INITIAL GUESS: MODEL POTENTIAL
------------------------------
Loading Hartree-Fock densities                     ... done
Calculating cut-offs                               ... done
Setting up the integral package                    ... done
Initializing the effective Hamiltonian             ... done
Starting the Coulomb interaction                   ... done (   0.0 sec)
Reading the grid                                   ... done
Mapping shells                                     ... done
Starting the XC term evaluation                    ... done (   0.2 sec)
  promolecular density results
     # of electrons  =     11.999999957
     EX              =    -15.915183279
     EC              =     -0.411074349
     EX+EC           =    -16.326257627
Transforming the Hamiltonian                       ... done (   0.0 sec)
Diagonalizing the Hamiltonian                      ... done (   0.0 sec)
Back transforming the eigenvectors                 ... done (   0.0 sec)
Now organizing SCF variables                       ... done
                      ------------------
                      INITIAL GUESS DONE (   1.0 sec)
                      ------------------
--------------
SCF ITERATIONS
--------------
ITER       Energy         Delta-E        Max-DP      RMS-DP      [F,P]     Damp
               ***  Starting incremental Fock matrix formation  ***
  0   -199.9547424636   0.000000000000 0.00127024  0.00004026  0.0059648 0.7000
  1   -199.9547565415  -0.000014077895 0.00126513  0.00003422  0.0035116 0.7000
                               ***Turning on DIIS***
  2   -199.9547650214  -0.000008479892 0.00419262  0.00009332  0.0019095 0.0000
  3   -199.9547818277  -0.000016806320 0.00078119  0.00002372  0.0010136 0.0000
  4   -199.9547829652  -0.000001137550 0.00068236  0.00001526  0.0001441 0.0000
  5   -199.9547830665  -0.000000101254 0.00002700  0.00000065  0.0000111 0.0000
  6   -199.9547830667  -0.000000000176 0.00000169  0.00000003  0.0000005 0.0000
                 **** Energy Check signals convergence ****

               *****************************************************
               *                     SUCCESS                       *
               *           SCF CONVERGED AFTER   7 CYCLES          *
               *****************************************************


----------------
TOTAL SCF ENERGY
----------------

Total Energy       :         -199.95478307 Eh           -5441.04626 eV

Components:
Nuclear Repulsion  :            0.00000000 Eh               0.00000 eV
Electronic Energy  :         -199.95478307 Eh           -5441.04626 eV
One Electron Energy:         -279.47721773 Eh           -7604.96172 eV
Two Electron Energy:           79.52243466 Eh            2163.91546 eV

Virial components:
Potential Energy   :         -399.71574018 Eh          -10876.81826 eV
Kinetic Energy     :          199.76095711 Eh            5435.77199 eV
Virial Ratio       :            2.00097029


DFT components:
N(Alpha)           :        6.000000000877 electrons
N(Beta)            :        6.000000000877 electrons
N(Total)           :       12.000000001755 electrons
E(X)               :      -15.900750510012 Eh       
E(C)               :       -0.408600147677 Eh       
E(XC)              :      -16.309350657689 Eh       
DFET-embed. en.    :        0.000000000000 Eh       

---------------
SCF CONVERGENCE
---------------

  Last Energy change         ...   -1.0800e-12  Tolerance :   1.0000e-09
  Last MAX-Density change    ...    1.3459e-07  Tolerance :   1.0000e-08
  Last RMS-Density change    ...    2.3366e-09  Tolerance :   1.0000e-09
  Last DIIS Error            ...    2.6178e-08  Tolerance :   1.0000e-08

             **** THE GBW FILE WAS UPDATED (mg_pbe.gbw) ****
             **** DENSITY FILE WAS UPDATED (mg_pbe.scfp.tmp) ****
             **** ENERGY FILE WAS UPDATED (mg_pbe.en.tmp) ****
----------------------
UHF SPIN CONTAMINATION
----------------------

Warning: in a DFT calculation there is little theoretical justification to 
         calculate <S**2> as in Hartree-Fock theory. We will do it anyways
         but you should keep in mind that the values have only limited relevance

Expectation value of <S**2>     :    -0.000000
Ideal value S*(S+1) for S=0.0   :     0.000000
Deviation                       :    -0.000000

----------------
ORBITAL ENERGIES
----------------
                 SPIN UP ORBITALS
  NO   OCC          E(Eh)            E(eV) 
   0   1.0000     -46.188418     -1256.8508 
   1   1.0000      -2.922334       -79.5207 
   2   1.0000      -1.712995       -46.6130 
   3   1.0000      -1.712995       -46.6130 
   4   1.0000      -1.712995       -46.6130 
   5   1.0000      -0.172683        -4.6990 
   6   0.0000      -0.049181        -1.3383 
   7   0.0000      -0.049181        -1.3383 
   8   0.0000      -0.049181        -1.3383 
   9   0.0000      -0.000609        -0.0166 
  10   0.0000       0.018813         0.5119 
  11   0.0000       0.018813         0.5119 
  12   0.0000       0.018813         0.5119 
  13   0.0000       0.051604         1.4042 
  14   0.0000       0.052679         1.4335 
  15   0.0000       0.052679         1.4335 
  16   0.0000       0.052679         1.4335 
  17   0.0000       0.052679         1.4335 
  18   0.0000       0.052679         1.4335 
  19   0.0000       0.087860         2.3908 
  20   0.0000       0.087860         2.3908 
  21   0.0000       0.087860         2.3908 
  22   0.0000       0.147317         4.0087 
  23   0.0000       0.147317         4.0087 
  24   0.0000       0.147317         4.0087 
  25   0.0000       0.147317         4.0087 
  26   0.0000       0.147317         4.0087 
  27   0.0000       0.147317         4.0087 
  28   0.0000       0.147317         4.0087 
  29   0.0000       0.198651         5.4056 
  30   0.0000       0.254498         6.9253 
  31   0.0000       0.254498         6.9253 
  32   0.0000       0.254498         6.9253 
  33   0.0000       0.254498         6.9253 
  34   0.0000       0.254498         6.9253 
  35   0.0000       0.254498         6.9253 
  36   0.0000       0.254498         6.9253 
  37   0.0000       0.254498         6.9253 
  38   0.0000       0.254498         6.9253 
  39   0.0000       0.297571         8.0973 
  40   0.0000       0.297571         8.0973 
  41   0.0000       0.297571         8.0973 
  42   0.0000       0.352320         9.5871 
  43   0.0000       0.352320         9.5871 
  44   0.0000       0.352320         9.5871 
  45   0.0000       0.352320         9.5871 
  46   0.0000       0.352320         9.5871 
  47   0.0000       0.619786        16.8652 
  48   0.0000       0.906576        24.6692 
  49   0.0000       0.906576        24.6692 
  50   0.0000       0.906576        24.6692 
  51   0.0000       0.955658        26.0048 
  52   0.0000       0.955658        26.0048 
  53   0.0000       0.955658        26.0048 
  54   0.0000       0.955658        26.0048 
  55   0.0000       0.955658        26.0048 
  56   0.0000       0.955658        26.0048 
  57   0.0000       0.955658        26.0048 
  58   0.0000       1.555870        42.3374 
  59   0.0000       1.555870        42.3374 
  60   0.0000       1.555870        42.3374 
  61   0.0000       1.555870        42.3374 
  62   0.0000       1.555870        42.3374 
  63   0.0000       1.555870        42.3374 
  64   0.0000       1.555870        42.3374 
  65   0.0000       1.555870        42.3374 
  66   0.0000       1.555870        42.3374 
  67   0.0000       1.705117        46.3986 
  68   0.0000       1.705117        46.3986 
  69   0.0000       1.705117        46.3986 
  70   0.0000       1.705117        46.3986 
  71   0.0000       1.705117        46.3986 
  72   0.0000       4.667562       127.0108 
  73   0.0000       4.667562       127.0108 
  74   0.0000       4.667562       127.0108 
  75   0.0000       4.667562       127.0108 
  76   0.0000       4.667562       127.0108 
  77   0.0000       4.667562       127.0108 
  78   0.0000       4.667562       127.0108 
  79   0.0000       4.725934       128.5992 
  80   0.0000       7.555439       205.5939 
  81   0.0000       7.555439       205.5939 
  82   0.0000       7.555439       205.5939 
  83   0.0000       7.555439       205.5939 
  84   0.0000       7.555439       205.5939 

                 SPIN DOWN ORBITALS
  NO   OCC          E(Eh)            E(eV) 
   0   1.0000     -46.188418     -1256.8508 
   1   1.0000      -2.922334       -79.5207 
   2   1.0000      -1.712995       -46.6130 
   3   1.0000      -1.712995       -46.6130 
   4   1.0000      -1.712995       -46.6130 
   5   1.0000      -0.172683        -4.6990 
   6   0.0000      -0.049181        -1.3383 
   7   0.0000      -0.049181        -1.3383 
   8   0.0000      -0.049181        -1.3383 
   9   0.0000      -0.000609        -0.0166 
  10   0.0000       0.018813         0.5119 
  11   0.0000       0.018813         0.5119 
  12   0.0000       0.018813         0.5119 
  13   0.0000       0.051604         1.4042 
  14   0.0000       0.052679         1.4335 
  15   0.0000       0.052679         1.4335 
  16   0.0000       0.052679         1.4335 
  17   0.0000       0.052679         1.4335 
  18   0.0000       0.052679         1.4335 
  19   0.0000       0.087860         2.3908 
  20   0.0000       0.087860         2.3908 
  21   0.0000       0.087860         2.3908 
  22   0.0000       0.147317         4.0087 
  23   0.0000       0.147317         4.0087 
  24   0.0000       0.147317         4.0087 
  25   0.0000       0.147317         4.0087 
  26   0.0000       0.147317         4.0087 
  27   0.0000       0.147317         4.0087 
  28   0.0000       0.147317         4.0087 
  29   0.0000       0.198651         5.4056 
  30   0.0000       0.254498         6.9253 
  31   0.0000       0.254498         6.9253 
  32   0.0000       0.254498         6.9253 
  33   0.0000       0.254498         6.9253 
  34   0.0000       0.254498         6.9253 
  35   0.0000       0.254498         6.9253 
  36   0.0000       0.254498         6.9253 
  37   0.0000       0.254498         6.9253 
  38   0.0000       0.254498         6.9253 
  39   0.0000       0.297571         8.0973 
  40   0.0000       0.297571         8.0973 
  41   0.0000       0.297571         8.0973 
  42   0.0000       0.352320         9.5871 
  43   0.0000       0.352320         9.5871 
  44   0.0000       0.352320         9.5871 
  45   0.0000       0.352320         9.5871 
  46   0.0000       0.352320         9.5871 
  47   0.0000       0.619786        16.8652 
  48   0.0000       0.906576        24.6692 
  49   0.0000       0.906576        24.6692 
  50   0.0000       0.906576        24.6692 
  51   0.0000       0.955658        26.0048 
  52   0.0000       0.955658        26.0048 
  53   0.0000       0.955658        26.0048 
  54   0.0000       0.955658        26.0048 
  55   0.0000       0.955658        26.0048 
  56   0.0000       0.955658        26.0048 
  57   0.0000       0.955658        26.0048 
  58   0.0000       1.555870        42.3374 
  59   0.0000       1.555870        42.3374 
  60   0.0000       1.555870        42.3374 
  61   0.0000       1.555870        42.3374 
  62   0.0000       1.555870        42.3374 
  63   0.0000       1.555870        42.3374 
  64   0.0000       1.555870        42.3374 
  65   0.0000       1.555870        42.3374 
  66   0.0000       1.555870        42.3374 
  67   0.0000       1.705117        46.3986 
  68   0.0000       1.705117        46.3986 
  69   0.0000       1.705117        46.3986 
  70   0.0000       1.705117        46.3986 
  71   0.0000       1.705117        46.3986 
  72   0.0000       4.667562       127.0108 
  73   0.0000       4.667562       127.0108 
  74   0.0000       4.667562       127.0108 
  75   0.0000       4.667562       127.0108 
  76   0.0000       4.667562       127.0108 
  77   0.0000       4.667562       127.0108 
  78   0.0000       4.667562       127.0108 
  79   0.0000       4.725934       128.5992 
  80   0.0000       7.555439       205.5939 
  81   0.0000       7.555439       205.5939 
  82   0.0000       7.555439       205.5939 
  83   0.0000       7.555439       205.5939 
  84   0.0000       7.555439       205.5939 

                    ********************************
                    * MULLIKEN POPULATION ANALYSIS *
                    ********************************

--------------------------------------------
MULLIKEN ATOMIC CHARGES AND SPIN POPULATIONS
--------------------------------------------
   0 Mg:   -0.000000    0.000000
Sum of atomic charges         :   -0.0000000
Sum of atomic spin populations:    0.0000000

-----------------------------------------------------
MULLIKEN REDUCED ORBITAL CHARGES AND SPIN POPULATIONS
-----------------------------------------------------
CHARGE
  0 Mgs       :     6.000000  s :     6.000000
      pz      :     2.000000  p :     6.000000
      px      :     2.000000
      py      :     2.000000
      dz2     :     0.000000  d :     0.000000
      dxz     :     0.000000
      dyz     :     0.000000
      dx2y2   :     0.000000
      dxy     :     0.000000
      f0      :     0.000000  f :     0.000000
      f+1     :     0.000000
      f-1     :     0.000000
      f+2     :     0.000000
      f-2     :     0.000000
      f+3     :     0.000000
      f-3     :     0.000000
      g0      :     0.000000  g :     0.000000
      g+1     :     0.000000
      g-1     :     0.000000
      g+2     :     0.000000
      g-2     :     0.000000
      g+3     :     0.000000
      g-3     :     0.000000
      g+4     :     0.000000
      g-4     :     0.000000

SPIN
  0 Mgs       :     0.000000  s :     0.000000
      pz      :     0.000000  p :     0.000000
      px      :     0.000000
      py      :     0.000000
      dz2     :    -0.000000  d :    -0.000000
      dxz     :    -0.000000
      dyz     :    -0.000000
      dx2y2   :    -0.000000
      dxy     :     0.000000
      f0      :    -0.000000  f :    -0.000000
      f+1     :     0.000000
      f-1     :    -0.000000
      f+2     :     0.000000
      f-2     :     0.000000
      f+3     :    -0.000000
      f-3     :    -0.000000
      g0      :     0.000000  g :     0.000000
      g+1     :     0.000000
      g-1     :     0.000000
      g+2     :     0.000000
      g-2     :    -0.000000
      g+3     :     0.000000
      g-3     :     0.000000
      g+4     :     0.000000
      g-4     :     0.000000


                     *******************************
                     * LOEWDIN POPULATION ANALYSIS *
                     *******************************

-------------------------------------------
LOEWDIN ATOMIC CHARGES AND SPIN POPULATIONS
-------------------------------------------
   0 Mg:   -0.000000    0.000000

----------------------------------------------------
LOEWDIN REDUCED ORBITAL CHARGES AND SPIN POPULATIONS
----------------------------------------------------
CHARGE
  0 Mgs       :     6.000000  s :     6.000000
      pz      :     2.000000  p :     6.000000
      px      :     2.000000
      py      :     2.000000
      dz2     :     0.000000  d :     0.000000
      dxz     :     0.000000
      dyz     :     0.000000
      dx2y2   :     0.000000
      dxy     :     0.000000
      f0      :     0.000000  f :     0.000000
      f+1     :     0.000000
      f-1     :     0.000000
      f+2     :     0.000000
      f-2     :     0.000000
      f+3     :     0.000000
      f-3     :     0.000000
      g0      :     0.000000  g :     0.000000
      g+1     :     0.000000
      g-1     :     0.000000
      g+2     :     0.000000
      g-2     :     0.000000
      g+3     :     0.000000
      g-3     :     0.000000
      g+4     :     0.000000
      g-4     :     0.000000

SPIN
  0 Mgs       :     0.000000  s :     0.000000
      pz      :     0.000000  p :     0.000000
      px      :     0.000000
      py      :     0.000000
      dz2     :    -0.000000  d :    -0.000000
      dxz     :    -0.000000
      dyz     :    -0.000000
      dx2y2   :    -0.000000
      dxy     :     0.000000
      f0      :    -0.000000  f :    -0.000000
      f+1     :     0.000000
      f-1     :    -0.000000
      f+2     :     0.000000
      f-2     :     0.000000
      f+3     :    -0.000000
      f-3     :    -0.000000
      g0      :     0.000000  g :     0.000000
      g+1     :     0.000000
      g-1     :     0.000000
      g+2     :     0.000000
      g-2     :    -0.000000
      g+3     :     0.000000
      g-3     :     0.000000
      g+4     :     0.000000
      g-4     :     0.000000


                      *****************************
                      * MAYER POPULATION ANALYSIS *
                      *****************************

  NA   - Mulliken gross atomic population
  ZA   - Total nuclear charge
  QA   - Mulliken gross atomic charge
  VA   - Mayer's total valence
  BVA  - Mayer's bonded valence
  FA   - Mayer's free valence

  ATOM       NA         ZA         QA         VA         BVA        FA
  0 Mg    12.0000    12.0000    -0.0000    -0.0000     0.0000    -0.0000

  Mayer bond orders larger than 0.1


-------
TIMINGS
-------

Total SCF time: 0 days 0 hours 0 min 9 sec 

Total time                  ....       9.779 sec
Sum of individual times     ....       9.367 sec  ( 95.8%)

Fock matrix formation       ....       8.259 sec  ( 84.5%)
  XC integration            ....       2.632 sec  ( 31.9% of F)
    Basis function eval.    ....       0.523 sec  ( 19.9% of XC)
    Density eval.           ....       0.518 sec  ( 19.7% of XC)
    XC-Functional eval.     ....       0.204 sec  (  7.8% of XC)
    XC-Potential eval.      ....       1.194 sec  ( 45.4% of XC)
Diagonalization             ....       0.024 sec  (  0.2%)
Density matrix formation    ....       0.001 sec  (  0.0%)
Population analysis         ....       0.016 sec  (  0.2%)
Initial guess               ....       0.284 sec  (  2.9%)
Orbital Transformation      ....       0.000 sec  (  0.0%)
Orbital Orthonormalization  ....       0.000 sec  (  0.0%)
DIIS solution               ....       0.077 sec  (  0.8%)
Grid generation             ....       0.706 sec  (  7.2%)

-------------------------   --------------------
FINAL SINGLE POINT ENERGY      -199.954783066658
-------------------------   --------------------


                            ***************************************
                            *     ORCA property calculations      *
                            ***************************************

                                    ---------------------
                                    Active property flags
                                    ---------------------
   (+) Dipole Moment
   (+) Polarizability


------------------------------------------------------------------------------
                       ORCA ELECTRIC PROPERTIES CALCULATION
------------------------------------------------------------------------------

Dipole Moment Calculation                       ... on
Quadrupole Moment Calculation                   ... off
Polarizability Calculation                      ... Analytic (CP-SCF)
GBWName                                         ... mg_pbe.gbw
Electron density file                           ... mg_pbe.scfp.tmp
The origin for moment calculation is the CENTER OF MASS  = ( 0.000000,  0.000000  0.000000)

-------------
DIPOLE MOMENT
-------------
                                X             Y             Z
Electronic contribution:      0.00000      -0.00000       0.00000
Nuclear contribution   :      0.00000       0.00000       0.00000
                        -----------------------------------------
Total Dipole Moment    :      0.00000      -0.00000       0.00000
                        -----------------------------------------
Magnitude (a.u.)       :      0.00000
Magnitude (Debye)      :      0.00000



--------------------
Rotational spectrum 
--------------------
 
Rotational constants in cm-1:     0.000000     0.000000     0.000000 
Rotational constants in MHz :     0.000000     0.000000     0.000000 

 Dipole components along the rotational axes: 
x,y,z [a.u.] :     0.000000    -0.000000     0.000000 
x,y,z [Debye]:     0.000000    -0.000000     0.000000 

 
Transforming and storing MO dipole integrals   ... done

                ... starting polarizability calculation

Opening the Dipole integral file               ... (mg_pbe.dmo.tmp) done
Reading Dipole-MO integrals                    ... done
Solving CP-SCF equations                       ... 
------------------------------------------------------------------------------
                           ORCA CP-SCF CALCULATION
------------------------------------------------------------------------------

Input orbitals are from        ... mg_pbe.gbw
Input Perturbation             ... mg_pbe.cpv.tmp
Wavefunction output            ... mg_pbe.cpu.tmp
Perturbation mode              ... Real perturbation (singlet)
Solver                         ... POPLE
Max. number of iterations      ... 200
Convergence tolerance          ... 1.000e-06
Integral handling              ... Direct
Number of perturbations        ... 3
Number of operators            ... 2
Orbital ranges used for CP-SCF:
 Operator 0:  Orbitals   0...  5  to   6... 84
 Operator 1:  Orbitals   0...  5  to   6... 84
DFT calculation                         ... on
Exchange functional (SCF)               ... PBE
Exchange functional (CP-SCF)            ... PBE
   PBE kappa parameter  XKappa (SCF)    ...  0.804000
   PBE kappa parameter  XKappa (CP-SCF) ...  0.804000
   PBE mue parameter   XMuePBE (SCF)    ...  0.219520
   PBE mue parameter   XMuePBE (CP-SCF) ...  0.219520
Correlation functional (SCF)            ... PBE
Correlation functional (CP-SCF)         ... PBE
   PBE beta parameter CBetaPBE (SCF)    ...  0.066725
   PBE beta parameter CBetaPBE (CP-SCF) ...  0.066725
 LDA part of GGA corr.  LDAOpt (SCF)    ... PW91-LDA
 LDA part of GGA corr.  LDAOpt (CP-SCF) ... PW91-LDA
Variables per vector in CP-SCF ... 948
Number of vectors sought       ... 3
Recalculating density on grid  ... done
Calculating the xc-kernel      ... done
     CP-SCF ITERATION   0: 
     CP-SCF ITERATION   1:      0.014490469222
     CP-SCF ITERATION   2:      0.000119247932
     CP-SCF ITERATION   3:      0.000000310477
done
Reading CP-SCF coefficients                    ... done
Doing the polarizability tensor   ... done
Cleaning up                                    ... done

-------------------------
THE POLARIZABILITY TENSOR
-------------------------

The raw cartesian tensor (atomic units):
   74.15268     -0.00000     -0.00000  
   -0.00000     74.15268      0.00000  
   -0.00000      0.00000     74.15268  
diagonalized tensor: 
   74.15268     74.15268     74.15268  

   -0.98319     -0.16750     -0.07267  
   -0.17085      0.98437      0.04261  
   -0.06440     -0.05431      0.99645  

Isotropic polarizability :  74.15268


Timings for individual modules:

Sum of individual times         ...       28.004 sec (=   0.467 min)
GTO integral calculation        ...        5.652 sec (=   0.094 min)  20.2 %
SCF iterations                  ...       13.379 sec (=   0.223 min)  47.8 %
Solution of CP-SCF eqns.        ...        8.972 sec (=   0.150 min)  32.0 %
                             ****ORCA TERMINATED NORMALLY****
TOTAL RUN TIME: 0 days 0 hours 0 minutes 29 seconds 370 msec
