
                                 *****************
                                 * O   R   C   A *
                                 *****************

           --- An Ab Initio, DFT and Semiempirical electronic structure package ---

                  #######################################################
                  #                        -***-                        #
                  #          Department of theory and spectroscopy      #
                  #               Directorship: Frank Neese             #
                  #        Max Planck Institute fuer Kohlenforschung    #
                  #                Kaiser Wilhelm Platz 1               #
                  #                 D-45470 Muelheim/Ruhr               #
                  #                      Germany                        #
                  #                                                     #
                  #                  All rights reserved                #
                  #                        -***-                        #
                  #######################################################


                         Program Version 4.1.2  - RELEASE  -


 With contributions from (in alphabetic order):
   Daniel Aravena         : Magnetic Properties
   Michael Atanasov       : Ab Initio Ligand Field Theory
   Alexander A. Auer      : GIAO ZORA
   Ute Becker             : Parallelization
   Giovanni Bistoni       : ED, Open-shell LED
   Martin Brehm           : Molecular dynamics
   Dmytro Bykov           : SCF Hessian
   Vijay G. Chilkuri      : MRCI spin determinant printing
   Dipayan Datta          : RHF DLPNO-CCSD density
   Achintya Kumar Dutta   : EOM-CC, STEOM-CC
   Dmitry Ganyushin       : Spin-Orbit,Spin-Spin,Magnetic field MRCI
   Miquel Garcia          : C-PCM Hessian
   Yang Guo               : DLPNO-NEVPT2, CIM, IAO-localization
   Andreas Hansen         : Spin unrestricted coupled pair/coupled cluster methods
   Benjamin Helmich-Paris : CASSCF linear response (MC-RPA)
   Lee Huntington         : MR-EOM, pCC
   Robert Izsak           : Overlap fitted RIJCOSX, COSX-SCS-MP3, EOM
   Christian Kollmar      : KDIIS, OOCD, Brueckner-CCSD(T), CCSD density
   Simone Kossmann        : Meta GGA functionals, TD-DFT gradient, OOMP2, MP2 Hessian
   Martin Krupicka        : AUTO-CI
   Lucas Lang             : DCDCAS
   Dagmar Lenk            : GEPOL surface, SMD
   Dimitrios Liakos       : Extrapolation schemes; parallel MDCI
   Dimitrios Manganas     : ROCIS; embedding schemes
   Dimitrios Pantazis     : SARC Basis sets
   Taras Petrenko         : DFT Hessian,TD-DFT gradient, ASA, ECA, R-Raman, ABS, FL, XAS/XES, NRVS
   Peter Pinski           : DLPNO-MP2, DLPNO-MP2 Gradient
   Christoph Reimann      : Effective Core Potentials
   Marius Retegan         : Local ZFS, SOC
   Christoph Riplinger    : Optimizer, TS searches, QM/MM, DLPNO-CCSD(T), (RO)-DLPNO pert. Triples
   Tobias Risthaus        : Range-separated hybrids, TD-DFT gradient, RPA, STAB
   Michael Roemelt        : Restricted open shell CIS
   Masaaki Saitow         : Open-shell DLPNO
   Barbara Sandhoefer     : DKH picture change effects
   Avijit Sen             : IP-ROCIS
   Kantharuban Sivalingam : CASSCF convergence, NEVPT2, FIC-MRCI
   Bernardo de Souza      : ESD, SOC TD-DFT
   Georgi Stoychev        : AutoAux, RI-MP2 NMR
   Willem Van den Heuvel  : Paramagnetic NMR
   Boris Wezisla          : Elementary symmetry handling
   Frank Wennmohs         : Technical directorship


 We gratefully acknowledge several colleagues who have allowed us to
 interface, adapt or use parts of their codes:
   Stefan Grimme, W. Hujo, H. Kruse,             : VdW corrections, initial TS optimization,
                  C. Bannwarth                     DFT functionals, gCP, sTDA/sTD-DF
   Ed Valeev                                     : LibInt (2-el integral package), F12 methods
   Garnet Chan, S. Sharma, J. Yang, R. Olivares  : DMRG
   Ulf Ekstrom                                   : XCFun DFT Library
   Mihaly Kallay                                 : mrcc  (arbitrary order and MRCC methods)
   Andreas Klamt, Michael Diedenhofen            : otool_cosmo (COSMO solvation model)
   Jiri Pittner, Ondrej Demel                    : Mk-CCSD
   Frank Weinhold                                : gennbo (NPA and NBO analysis)
   Christopher J. Cramer and Donald G. Truhlar   : smd solvation model
   Lars Goerigk                                  : TD-DFT with DH, B97 family of functionals
   V. Asgeirsson, H. Jonsson                     : NEB implementation
   FAccTs GmbH                                   : IRC, NEB, NEB-TS, Multilevel


 Your calculation uses the libint2 library for the computation of 2-el integrals
 For citations please refer to: http://libint.valeyev.net

 This ORCA versions uses:
   CBLAS   interface :  Fast vector & matrix operations
   LAPACKE interface :  Fast linear algebra routines
   SCALAPACK package :  Parallel linear algebra routines


----- Orbital basis set information -----
Your calculation utilizes the basis: aug-pc-4
   H, C-F              : F. Jensen, J. Chem. Phys. 115, 9113 (2001).
                         F. Jensen, J. Chem. Phys. 116, 7372 (2002).
                         F. Jensen, J. Chem. Phys. 117, 9234 (2002).
   Si-Cl               : F. Jensen, T. Helgaker, J. Chem. Phys. 121, 3463 (2004).
   He-B, Ne-Mg, Al, Ar : F. Jensen, J. Phys. Chem. A 111, 11198 (2007).
   K, Ca, Ga-Kr        : F. Jensen, J. Chem. Phys. 136, 094110 (2012).
   Sc-Zn               : F. Jensen, J. Chem. Phys. 138, 014107 (2013).

================================================================================
                                        WARNINGS
                       Please study these warnings very carefully!
================================================================================


INFO   : the flag for use of LIBINT has been found!

================================================================================
                                       INPUT FILE
================================================================================
NAME = n2_pbe.inp
|  1> !uks pbe nori aug-pc-4 grid7 nofinalgrid verytightscf
|  2> 
|  3> %maxcore 1500
|  4> 
|  5> %pal nprocs 1 end
|  6> 
|  7> %scf
|  8> 	maxiter 200
|  9> end
| 10> %elprop
| 11> 	dipole true
| 12> 	 polar 1
| 13> 	 maxiter 200
| 14> end
| 15> 
| 16> * xyz 0 1
| 17> N 0.0000 0.0000 0.5488
| 18> N 0.0000 0.0000 -0.5488
| 19> *
| 20> 
| 21>                          ****END OF INPUT****
================================================================================

                       ****************************
                       * Single Point Calculation *
                       ****************************

---------------------------------
CARTESIAN COORDINATES (ANGSTROEM)
---------------------------------
  N      0.000000    0.000000    0.548800
  N      0.000000    0.000000   -0.548800

----------------------------
CARTESIAN COORDINATES (A.U.)
----------------------------
  NO LB      ZA    FRAG     MASS         X           Y           Z
   0 N     7.0000    0    14.007    0.000000    0.000000    1.037082
   1 N     7.0000    0    14.007    0.000000    0.000000   -1.037082

--------------------------------
INTERNAL COORDINATES (ANGSTROEM)
--------------------------------
 N      0   0   0     0.000000000000     0.00000000     0.00000000
 N      1   0   0     1.097600000000     0.00000000     0.00000000

---------------------------
INTERNAL COORDINATES (A.U.)
---------------------------
 N      0   0   0     0.000000000000     0.00000000     0.00000000
 N      1   0   0     2.074163404592     0.00000000     0.00000000

---------------------
BASIS SET INFORMATION
---------------------
There are 1 groups of distinct atoms

 Group   1 Type N   : 27s12p7d4f3g2h contracted to 9s8p7d4f3g2h pattern {1191111111/51111111/1111111/1111/111/11}

Atom   0N    basis set group =>   1
Atom   1N    basis set group =>   1
------------------------------------------------------------------------------
                           ORCA GTO INTEGRAL CALCULATION
------------------------------------------------------------------------------

                         BASIS SET STATISTICS AND STARTUP INFO

 # of primitive gaussian shells          ...  110
 # of primitive gaussian functions       ...  350
 # of contracted shells                  ...   66
 # of contracted basis functions         ...  290
 Highest angular momentum                ...    5
 Maximum contraction depth               ...   11
 Integral package used                   ... LIBINT
 Integral threshhold            Thresh   ...  1.000e-12
 Primitive cut-off              TCut     ...  1.000e-14


------------------------------ INTEGRAL EVALUATION ----------------------------


 * One electron integrals 
 Pre-screening matrix                    ... done
 Shell pair data                         ... done (   0.001 sec)

-------------------------------------------------------------------------------
                                 ORCA SCF
-------------------------------------------------------------------------------

------------
SCF SETTINGS
------------
Hamiltonian:
 Density Functional     Method          .... DFT(GTOs)
 Exchange Functional    Exchange        .... PBE
   PBE kappa parameter   XKappa         ....  0.804000
   PBE mue parameter    XMuePBE         ....  0.219520
 Correlation Functional Correlation     .... PBE
   PBE beta parameter  CBetaPBE         ....  0.066725
 LDA part of GGA corr.  LDAOpt          .... PW91-LDA
 Gradients option       PostSCFGGA      .... off
   Density functional embedding theory  .... OFF
   NL short-range parameter             ....  6.400000


General Settings:
 Integral files         IntName         .... n2_pbe
 Hartree-Fock type      HFTyp           .... UHF
 Total Charge           Charge          ....    0
 Multiplicity           Mult            ....    1
 Number of Electrons    NEL             ....   14
 Basis Dimension        Dim             ....  290
 Nuclear Repulsion      ENuc            ....     23.6239825134 Eh

Convergence Acceleration:
 DIIS                   CNVDIIS         .... on
   Start iteration      DIISMaxIt       ....    12
   Startup error        DIISStart       ....  0.200000
   # of expansion vecs  DIISMaxEq       ....     5
   Bias factor          DIISBfac        ....   1.050
   Max. coefficient     DIISMaxC        ....  10.000
 Newton-Raphson         CNVNR           .... off
 SOSCF                  CNVSOSCF        .... off
 Level Shifting         CNVShift        .... on
   Level shift para.    LevelShift      ....    0.2500
   Turn off err/grad.   ShiftErr        ....    0.0010
 Zerner damping         CNVZerner       .... off
 Static damping         CNVDamp         .... on
   Fraction old density DampFac         ....    0.7000
   Max. Damping (<1)    DampMax         ....    0.9800
   Min. Damping (>=0)   DampMin         ....    0.0000
   Turn off err/grad.   DampErr         ....    0.1000
 Fernandez-Rico         CNVRico         .... off

SCF Procedure:
 Maximum # iterations   MaxIter         ....   200
 SCF integral mode      SCFMode         .... Direct
   Integral package                     .... LIBINT
 Reset frequency        DirectResetFreq ....    20
 Integral Threshold     Thresh          ....  1.000e-12 Eh
 Primitive CutOff       TCut            ....  1.000e-14 Eh

Convergence Tolerance:
 Convergence Check Mode ConvCheckMode   .... Total+1el-Energy
 Convergence forced     ConvForced      .... 0
 Energy Change          TolE            ....  1.000e-09 Eh
 1-El. energy change                    ....  1.000e-06 Eh
 DIIS Error             TolErr          ....  1.000e-08


Diagonalization of the overlap matrix:
Smallest eigenvalue                        ... 1.256e-06
Time for diagonalization                   ...    0.014 sec
Threshold for overlap eigenvalues          ... 1.000e-08
Number of eigenvalues below threshold      ... 0
Time for construction of square roots      ...    0.036 sec
Total time needed                          ...    0.050 sec

-------------------
DFT GRID GENERATION
-------------------

General Integration Accuracy     IntAcc      ...  5.670
Radial Grid Type                 RadialGrid  ... Gauss-Chebyshev
Angular Grid (max. acc.)         AngularGrid ... Lebedev-770
Angular grid pruning method      GridPruning ... 3 (G Style)
Weight generation scheme         WeightScheme... Becke
Basis function cutoff            BFCut       ...    1.0000e-12
Integration weight cutoff        WCut        ...    1.0000e-14
Grids for H and He will be reduced by one unit

# of grid points (after initial pruning)     ...  50068 (   0.0 sec)
# of grid points (after weights+screening)   ...  49874 (   0.0 sec)
nearest neighbour list constructed           ...    0.0 sec
Grid point re-assignment to atoms done       ...    0.0 sec
Grid point division into batches done        ...    1.0 sec
Reduced shell lists constructed in    1.5 sec

Total number of grid points                  ...    49874
Total number of batches                      ...      780
Average number of points per batch           ...       63
Average number of grid points per atom       ...    24937
Average number of shells per batch           ...    51.43 (77.92%)
Average number of basis functions per batch  ...   233.06 (80.37%)
Average number of large shells per batch     ...    47.04 (91.46%)
Average number of large basis fcns per batch ...   214.40 (91.99%)
Maximum spatial batch extension              ...  13.24, 13.24, 20.11 au
Average spatial batch extension              ...   2.35,  2.36,  2.17 au

Time for grid setup =    1.511 sec

------------------------------
INITIAL GUESS: MODEL POTENTIAL
------------------------------
Loading Hartree-Fock densities                     ... done
Calculating cut-offs                               ... done
Setting up the integral package                    ... done
Initializing the effective Hamiltonian             ... done
Starting the Coulomb interaction                   ... done (   0.0 sec)
Reading the grid                                   ... done
Mapping shells                                     ... done
Starting the XC term evaluation                    ... done (   2.1 sec)
  promolecular density results
     # of electrons  =     13.999999408
     EX              =    -12.973816545
     EC              =     -0.447147534
     EX+EC           =    -13.420964079
Transforming the Hamiltonian                       ... done (   0.0 sec)
Diagonalizing the Hamiltonian                      ... done (   0.0 sec)
Back transforming the eigenvectors                 ... done (   0.0 sec)
Now organizing SCF variables                       ... done
                      ------------------
                      INITIAL GUESS DONE (   3.8 sec)
                      ------------------
--------------
SCF ITERATIONS
--------------
ITER       Energy         Delta-E        Max-DP      RMS-DP      [F,P]     Damp
               ***  Starting incremental Fock matrix formation  ***
  0   -109.4464974832   0.000000000000 0.00724159  0.00007062  0.0650859 0.7000
  1   -109.4524345135  -0.005937030308 0.00431304  0.00004700  0.0385951 0.7000
                               ***Turning on DIIS***
  2   -109.4552307773  -0.002796263783 0.00582701  0.00008600  0.0211840 0.0000
  3   -109.4592881934  -0.004057416043 0.00393130  0.00004092  0.0160448 0.0000
  4   -109.4602131840  -0.000924990628 0.00041161  0.00000792  0.0016375 0.0000
  5   -109.4602283487  -0.000015164733 0.00037637  0.00000522  0.0003141 0.0000
  6   -109.4602290637  -0.000000715032 0.00004129  0.00000057  0.0000488 0.0000
  7   -109.4602290679  -0.000000004196 0.00000568  0.00000006  0.0000130 0.0000
  8   -109.4602290681  -0.000000000180 0.00001067  0.00000012  0.0000009 0.0000
  9   -109.4602290681  -0.000000000002 0.00000389  0.00000005  0.0000002 0.0000
                 **** Energy Check signals convergence ****

               *****************************************************
               *                     SUCCESS                       *
               *           SCF CONVERGED AFTER  10 CYCLES          *
               *****************************************************


----------------
TOTAL SCF ENERGY
----------------

Total Energy       :         -109.46022907 Eh           -2978.56426 eV

Components:
Nuclear Repulsion  :           23.62398251 Eh             642.84125 eV
Electronic Energy  :         -133.08421158 Eh           -3621.40551 eV
One Electron Energy:         -194.58783542 Eh           -5295.00419 eV
Two Electron Energy:           61.50362384 Eh            1673.59869 eV

Virial components:
Potential Energy   :         -218.57119020 Eh           -5947.62446 eV
Kinetic Energy     :          109.11096113 Eh            2969.06020 eV
Virial Ratio       :            2.00320103


DFT components:
N(Alpha)           :        6.999999800152 electrons
N(Beta)            :        6.999999800152 electrons
N(Total)           :       13.999999600304 electrons
E(X)               :      -13.127378890110 Eh       
E(C)               :       -0.451280074838 Eh       
E(XC)              :      -13.578658964949 Eh       
DFET-embed. en.    :        0.000000000000 Eh       

---------------
SCF CONVERGENCE
---------------

  Last Energy change         ...    9.9476e-14  Tolerance :   1.0000e-09
  Last MAX-Density change    ...    7.8638e-05  Tolerance :   1.0000e-08
  Last RMS-Density change    ...    1.0096e-06  Tolerance :   1.0000e-09
  Last DIIS Error            ...    1.3838e-08  Tolerance :   1.0000e-08

             **** THE GBW FILE WAS UPDATED (n2_pbe.gbw) ****
             **** DENSITY FILE WAS UPDATED (n2_pbe.scfp.tmp) ****
             **** ENERGY FILE WAS UPDATED (n2_pbe.en.tmp) ****
----------------------
UHF SPIN CONTAMINATION
----------------------

Warning: in a DFT calculation there is little theoretical justification to 
         calculate <S**2> as in Hartree-Fock theory. We will do it anyways
         but you should keep in mind that the values have only limited relevance

Expectation value of <S**2>     :    -0.000000
Ideal value S*(S+1) for S=0.0   :     0.000000
Deviation                       :    -0.000000

----------------
ORBITAL ENERGIES
----------------
                 SPIN UP ORBITALS
  NO   OCC          E(Eh)            E(eV) 
   0   1.0000     -14.082971      -383.2171 
   1   1.0000     -14.081641      -383.1809 
   2   1.0000      -1.038115       -28.2486 
   3   1.0000      -0.495822       -13.4920 
   4   1.0000      -0.427735       -11.6392 
   5   1.0000      -0.427735       -11.6392 
   6   1.0000      -0.377287       -10.2665 
   7   0.0000      -0.071908        -1.9567 
   8   0.0000      -0.071908        -1.9567 
   9   0.0000       0.005847         0.1591 
  10   0.0000       0.022006         0.5988 
  11   0.0000       0.026813         0.7296 
  12   0.0000       0.026813         0.7296 
  13   0.0000       0.055296         1.5047 
  14   0.0000       0.057224         1.5572 
  15   0.0000       0.057224         1.5572 
  16   0.0000       0.084957         2.3118 
  17   0.0000       0.122943         3.3454 
  18   0.0000       0.129000         3.5103 
  19   0.0000       0.129000         3.5103 
  20   0.0000       0.131193         3.5699 
  21   0.0000       0.131193         3.5699 
  22   0.0000       0.161391         4.3917 
  23   0.0000       0.161391         4.3917 
  24   0.0000       0.168786         4.5929 
  25   0.0000       0.175571         4.7775 
  26   0.0000       0.184219         5.0128 
  27   0.0000       0.184219         5.0128 
  28   0.0000       0.188867         5.1393 
  29   0.0000       0.188867         5.1393 
  30   0.0000       0.223873         6.0919 
  31   0.0000       0.285191         7.7604 
  32   0.0000       0.285191         7.7604 
  33   0.0000       0.310161         8.4399 
  34   0.0000       0.310161         8.4399 
  35   0.0000       0.312874         8.5137 
  36   0.0000       0.338368         9.2075 
  37   0.0000       0.338368         9.2075 
  38   0.0000       0.349659         9.5147 
  39   0.0000       0.349659         9.5147 
  40   0.0000       0.374055        10.1786 
  41   0.0000       0.374055        10.1786 
  42   0.0000       0.381218        10.3735 
  43   0.0000       0.381993        10.3946 
  44   0.0000       0.399622        10.8743 
  45   0.0000       0.399622        10.8743 
  46   0.0000       0.424808        11.5596 
  47   0.0000       0.424808        11.5596 
  48   0.0000       0.428040        11.6476 
  49   0.0000       0.428040        11.6476 
  50   0.0000       0.444911        12.1066 
  51   0.0000       0.464639        12.6435 
  52   0.0000       0.469418        12.7735 
  53   0.0000       0.469418        12.7735 
  54   0.0000       0.519318        14.1314 
  55   0.0000       0.519318        14.1314 
  56   0.0000       0.565105        15.3773 
  57   0.0000       0.571781        15.5589 
  58   0.0000       0.571781        15.5589 
  59   0.0000       0.618742        16.8368 
  60   0.0000       0.618742        16.8368 
  61   0.0000       0.620221        16.8771 
  62   0.0000       0.620221        16.8771 
  63   0.0000       0.640889        17.4395 
  64   0.0000       0.643040        17.4980 
  65   0.0000       0.643040        17.4980 
  66   0.0000       0.649586        17.6761 
  67   0.0000       0.649586        17.6761 
  68   0.0000       0.668781        18.1985 
  69   0.0000       0.724930        19.7264 
  70   0.0000       0.724930        19.7264 
  71   0.0000       0.757004        20.5991 
  72   0.0000       0.757005        20.5991 
  73   0.0000       0.760528        20.6950 
  74   0.0000       0.760528        20.6950 
  75   0.0000       0.788430        21.4543 
  76   0.0000       0.788430        21.4543 
  77   0.0000       0.792508        21.5652 
  78   0.0000       0.792508        21.5652 
  79   0.0000       0.799720        21.7615 
  80   0.0000       0.799720        21.7615 
  81   0.0000       0.833299        22.6752 
  82   0.0000       0.833299        22.6752 
  83   0.0000       0.876079        23.8393 
  84   0.0000       0.878602        23.9080 
  85   0.0000       0.878602        23.9080 
  86   0.0000       0.887092        24.1390 
  87   0.0000       0.894244        24.3336 
  88   0.0000       0.894244        24.3336 
  89   0.0000       0.911628        24.8066 
  90   0.0000       0.911628        24.8066 
  91   0.0000       0.933528        25.4026 
  92   0.0000       0.933528        25.4026 
  93   0.0000       0.937905        25.5217 
  94   0.0000       0.937905        25.5217 
  95   0.0000       0.943535        25.6749 
  96   0.0000       0.962666        26.1955 
  97   0.0000       1.015082        27.6218 
  98   0.0000       1.033969        28.1357 
  99   0.0000       1.033969        28.1357 
 100   0.0000       1.071961        29.1695 
 101   0.0000       1.071961        29.1695 
 102   0.0000       1.074621        29.2419 
 103   0.0000       1.092930        29.7401 
 104   0.0000       1.092930        29.7401 
 105   0.0000       1.096504        29.8374 
 106   0.0000       1.096504        29.8374 
 107   0.0000       1.204439        32.7744 
 108   0.0000       1.204439        32.7744 
 109   0.0000       1.348713        36.7003 
 110   0.0000       1.348713        36.7003 
 111   0.0000       1.434028        39.0219 
 112   0.0000       1.446437        39.3595 
 113   0.0000       1.474515        40.1236 
 114   0.0000       1.474515        40.1236 
 115   0.0000       1.571578        42.7648 
 116   0.0000       1.571578        42.7648 
 117   0.0000       1.592334        43.3296 
 118   0.0000       1.592334        43.3296 
 119   0.0000       1.729474        47.0614 
 120   0.0000       1.780652        48.4540 
 121   0.0000       1.780652        48.4540 
 122   0.0000       1.867224        50.8098 
 123   0.0000       1.867224        50.8098 
 124   0.0000       1.988546        54.1111 
 125   0.0000       2.009190        54.6728 
 126   0.0000       2.014141        54.8076 
 127   0.0000       2.014141        54.8076 
 128   0.0000       2.017171        54.8900 
 129   0.0000       2.017171        54.8900 
 130   0.0000       2.274585        61.8946 
 131   0.0000       2.274585        61.8946 
 132   0.0000       2.299752        62.5794 
 133   0.0000       2.299752        62.5794 
 134   0.0000       2.411795        65.6283 
 135   0.0000       2.637123        71.7598 
 136   0.0000       2.741924        74.6115 
 137   0.0000       2.741924        74.6115 
 138   0.0000       2.808527        76.4239 
 139   0.0000       2.808527        76.4239 
 140   0.0000       2.838581        77.2417 
 141   0.0000       2.838581        77.2417 
 142   0.0000       2.970801        80.8396 
 143   0.0000       3.164830        86.1194 
 144   0.0000       3.164830        86.1194 
 145   0.0000       3.273602        89.0792 
 146   0.0000       3.411143        92.8219 
 147   0.0000       3.431630        93.3794 
 148   0.0000       3.431630        93.3794 
 149   0.0000       3.518198        95.7350 
 150   0.0000       3.518198        95.7350 
 151   0.0000       3.840088       104.4941 
 152   0.0000       4.054171       110.3196 
 153   0.0000       4.072290       110.8126 
 154   0.0000       4.072290       110.8126 
 155   0.0000       4.260477       115.9335 
 156   0.0000       4.260477       115.9335 
 157   0.0000       4.401803       119.7791 
 158   0.0000       4.401803       119.7791 
 159   0.0000       4.699209       127.8720 
 160   0.0000       4.699209       127.8720 
 161   0.0000       4.718136       128.3870 
 162   0.0000       4.718136       128.3870 
 163   0.0000       4.722420       128.5036 
 164   0.0000       4.722420       128.5036 
 165   0.0000       4.753471       129.3485 
 166   0.0000       4.753471       129.3485 
 167   0.0000       4.930363       134.1620 
 168   0.0000       5.132163       139.6532 
 169   0.0000       5.132163       139.6532 
 170   0.0000       5.199071       141.4739 
 171   0.0000       5.199071       141.4739 
 172   0.0000       5.254053       142.9700 
 173   0.0000       5.640167       153.4767 
 174   0.0000       5.640167       153.4767 
 175   0.0000       5.962984       162.2611 
 176   0.0000       5.962984       162.2611 
 177   0.0000       5.982845       162.8015 
 178   0.0000       5.982845       162.8015 
 179   0.0000       6.166735       167.8054 
 180   0.0000       6.166735       167.8054 
 181   0.0000       6.279944       170.8860 
 182   0.0000       6.392498       173.9487 
 183   0.0000       6.630943       180.4371 
 184   0.0000       6.630943       180.4371 
 185   0.0000       6.803283       185.1268 
 186   0.0000       6.803283       185.1268 
 187   0.0000       7.005427       190.6274 
 188   0.0000       7.102453       193.2676 
 189   0.0000       7.102453       193.2676 
 190   0.0000       7.304692       198.7708 
 191   0.0000       7.427421       202.1104 
 192   0.0000       7.427421       202.1104 
 193   0.0000       7.477675       203.4779 
 194   0.0000       7.477675       203.4779 
 195   0.0000       7.558866       205.6872 
 196   0.0000       8.328378       226.6267 
 197   0.0000       8.721165       237.3150 
 198   0.0000       8.721165       237.3150 
 199   0.0000       8.835205       240.4181 
 200   0.0000       8.835205       240.4181 
 201   0.0000       9.116267       248.0662 
 202   0.0000       9.116267       248.0662 
 203   0.0000       9.734611       264.8922 
 204   0.0000      10.513158       286.0776 
 205   0.0000      10.636459       289.4328 
 206   0.0000      10.636459       289.4328 
 207   0.0000      10.682546       290.6869 
 208   0.0000      10.682546       290.6869 
 209   0.0000      10.743790       292.3534 
 210   0.0000      10.743790       292.3534 
 211   0.0000      10.772268       293.1283 
 212   0.0000      10.772268       293.1283 
 213   0.0000      11.160899       303.7035 
 214   0.0000      11.160899       303.7035 
 215   0.0000      11.195799       304.6532 
 216   0.0000      11.195799       304.6532 
 217   0.0000      11.261429       306.4390 
 218   0.0000      11.261429       306.4390 
 219   0.0000      11.302395       307.5538 
 220   0.0000      11.435361       311.1720 
 221   0.0000      11.435361       311.1720 
 222   0.0000      11.594270       315.4961 
 223   0.0000      11.594271       315.4961 
 224   0.0000      12.063129       328.2544 
 225   0.0000      12.085423       328.8611 
 226   0.0000      12.085423       328.8611 
 227   0.0000      12.144824       330.4775 
 228   0.0000      12.144824       330.4775 
 229   0.0000      12.540916       341.2557 
 230   0.0000      12.540916       341.2557 
 231   0.0000      12.699326       345.5662 
 232   0.0000      13.705118       372.9352 
 233   0.0000      13.705118       372.9352 
 234   0.0000      13.941232       379.3602 
 235   0.0000      13.941232       379.3602 
 236   0.0000      14.084011       383.2454 
 237   0.0000      14.084011       383.2454 
 238   0.0000      14.123634       384.3236 
 239   0.0000      14.123634       384.3236 
 240   0.0000      14.300845       389.1458 
 241   0.0000      14.300846       389.1458 
 242   0.0000      14.681773       399.5114 
 243   0.0000      14.681773       399.5114 
 244   0.0000      14.851091       404.1187 
 245   0.0000      14.917725       405.9319 
 246   0.0000      14.917725       405.9319 
 247   0.0000      15.007997       408.3884 
 248   0.0000      15.007997       408.3884 
 249   0.0000      15.029491       408.9732 
 250   0.0000      15.029491       408.9732 
 251   0.0000      15.469015       420.9333 
 252   0.0000      15.837126       430.9501 
 253   0.0000      15.837126       430.9501 
 254   0.0000      16.065325       437.1597 
 255   0.0000      16.300379       443.5559 
 256   0.0000      16.300380       443.5559 
 257   0.0000      16.310263       443.8248 
 258   0.0000      16.386277       445.8933 
 259   0.0000      16.386277       445.8933 
 260   0.0000      16.645709       452.9528 
 261   0.0000      16.645710       452.9528 
 262   0.0000      16.970644       461.7947 
 263   0.0000      16.970644       461.7947 
 264   0.0000      17.600099       478.9230 
 265   0.0000      17.944261       488.2882 
 266   0.0000      17.944261       488.2882 
 267   0.0000      19.500628       530.6391 
 268   0.0000      19.500628       530.6391 
 269   0.0000      20.883821       568.2777 
 270   0.0000      24.118753       656.3046 
 271   0.0000      24.277393       660.6214 
 272   0.0000      25.787092       701.7024 
 273   0.0000      25.787092       701.7024 
 274   0.0000      26.483776       720.6602 
 275   0.0000      26.483776       720.6602 
 276   0.0000      27.198632       740.1124 
 277   0.0000      30.491113       829.7054 
 278   0.0000      47.468406      1291.6810 
 279   0.0000      47.468410      1291.6811 
 280   0.0000      47.678891      1297.4086 
 281   0.0000      47.678895      1297.4087 
 282   0.0000      47.770082      1299.8900 
 283   0.0000      47.770082      1299.8900 
 284   0.0000      48.302987      1314.3911 
 285   0.0000      48.302987      1314.3911 
 286   0.0000      48.343689      1315.4987 
 287   0.0000      50.028569      1361.3466 
 288   0.0000     103.698908      2821.7907 
 289   0.0000     108.351465      2948.3933 

                 SPIN DOWN ORBITALS
  NO   OCC          E(Eh)            E(eV) 
   0   1.0000     -14.082971      -383.2171 
   1   1.0000     -14.081641      -383.1809 
   2   1.0000      -1.038115       -28.2486 
   3   1.0000      -0.495822       -13.4920 
   4   1.0000      -0.427735       -11.6392 
   5   1.0000      -0.427735       -11.6392 
   6   1.0000      -0.377287       -10.2665 
   7   0.0000      -0.071908        -1.9567 
   8   0.0000      -0.071908        -1.9567 
   9   0.0000       0.005847         0.1591 
  10   0.0000       0.022006         0.5988 
  11   0.0000       0.026813         0.7296 
  12   0.0000       0.026813         0.7296 
  13   0.0000       0.055296         1.5047 
  14   0.0000       0.057224         1.5572 
  15   0.0000       0.057224         1.5572 
  16   0.0000       0.084957         2.3118 
  17   0.0000       0.122943         3.3454 
  18   0.0000       0.129000         3.5103 
  19   0.0000       0.129000         3.5103 
  20   0.0000       0.131193         3.5699 
  21   0.0000       0.131193         3.5699 
  22   0.0000       0.161391         4.3917 
  23   0.0000       0.161391         4.3917 
  24   0.0000       0.168786         4.5929 
  25   0.0000       0.175571         4.7775 
  26   0.0000       0.184219         5.0128 
  27   0.0000       0.184219         5.0128 
  28   0.0000       0.188867         5.1393 
  29   0.0000       0.188867         5.1393 
  30   0.0000       0.223873         6.0919 
  31   0.0000       0.285191         7.7604 
  32   0.0000       0.285191         7.7604 
  33   0.0000       0.310161         8.4399 
  34   0.0000       0.310161         8.4399 
  35   0.0000       0.312874         8.5137 
  36   0.0000       0.338368         9.2075 
  37   0.0000       0.338368         9.2075 
  38   0.0000       0.349659         9.5147 
  39   0.0000       0.349659         9.5147 
  40   0.0000       0.374055        10.1786 
  41   0.0000       0.374055        10.1786 
  42   0.0000       0.381218        10.3735 
  43   0.0000       0.381993        10.3946 
  44   0.0000       0.399622        10.8743 
  45   0.0000       0.399622        10.8743 
  46   0.0000       0.424808        11.5596 
  47   0.0000       0.424808        11.5596 
  48   0.0000       0.428040        11.6476 
  49   0.0000       0.428040        11.6476 
  50   0.0000       0.444911        12.1066 
  51   0.0000       0.464639        12.6435 
  52   0.0000       0.469418        12.7735 
  53   0.0000       0.469418        12.7735 
  54   0.0000       0.519318        14.1314 
  55   0.0000       0.519318        14.1314 
  56   0.0000       0.565105        15.3773 
  57   0.0000       0.571781        15.5589 
  58   0.0000       0.571781        15.5589 
  59   0.0000       0.618742        16.8368 
  60   0.0000       0.618742        16.8368 
  61   0.0000       0.620221        16.8771 
  62   0.0000       0.620221        16.8771 
  63   0.0000       0.640889        17.4395 
  64   0.0000       0.643040        17.4980 
  65   0.0000       0.643040        17.4980 
  66   0.0000       0.649586        17.6761 
  67   0.0000       0.649586        17.6761 
  68   0.0000       0.668781        18.1985 
  69   0.0000       0.724930        19.7264 
  70   0.0000       0.724930        19.7264 
  71   0.0000       0.757004        20.5991 
  72   0.0000       0.757005        20.5991 
  73   0.0000       0.760528        20.6950 
  74   0.0000       0.760528        20.6950 
  75   0.0000       0.788430        21.4543 
  76   0.0000       0.788430        21.4543 
  77   0.0000       0.792508        21.5652 
  78   0.0000       0.792508        21.5652 
  79   0.0000       0.799720        21.7615 
  80   0.0000       0.799720        21.7615 
  81   0.0000       0.833299        22.6752 
  82   0.0000       0.833299        22.6752 
  83   0.0000       0.876079        23.8393 
  84   0.0000       0.878602        23.9080 
  85   0.0000       0.878602        23.9080 
  86   0.0000       0.887092        24.1390 
  87   0.0000       0.894244        24.3336 
  88   0.0000       0.894244        24.3336 
  89   0.0000       0.911628        24.8066 
  90   0.0000       0.911628        24.8066 
  91   0.0000       0.933528        25.4026 
  92   0.0000       0.933528        25.4026 
  93   0.0000       0.937905        25.5217 
  94   0.0000       0.937905        25.5217 
  95   0.0000       0.943535        25.6749 
  96   0.0000       0.962666        26.1955 
  97   0.0000       1.015082        27.6218 
  98   0.0000       1.033969        28.1357 
  99   0.0000       1.033969        28.1357 
 100   0.0000       1.071961        29.1695 
 101   0.0000       1.071961        29.1695 
 102   0.0000       1.074621        29.2419 
 103   0.0000       1.092930        29.7401 
 104   0.0000       1.092930        29.7401 
 105   0.0000       1.096504        29.8374 
 106   0.0000       1.096504        29.8374 
 107   0.0000       1.204439        32.7744 
 108   0.0000       1.204439        32.7744 
 109   0.0000       1.348713        36.7003 
 110   0.0000       1.348713        36.7003 
 111   0.0000       1.434028        39.0219 
 112   0.0000       1.446437        39.3595 
 113   0.0000       1.474515        40.1236 
 114   0.0000       1.474515        40.1236 
 115   0.0000       1.571578        42.7648 
 116   0.0000       1.571578        42.7648 
 117   0.0000       1.592334        43.3296 
 118   0.0000       1.592334        43.3296 
 119   0.0000       1.729474        47.0614 
 120   0.0000       1.780652        48.4540 
 121   0.0000       1.780652        48.4540 
 122   0.0000       1.867224        50.8098 
 123   0.0000       1.867224        50.8098 
 124   0.0000       1.988546        54.1111 
 125   0.0000       2.009190        54.6728 
 126   0.0000       2.014141        54.8076 
 127   0.0000       2.014141        54.8076 
 128   0.0000       2.017171        54.8900 
 129   0.0000       2.017171        54.8900 
 130   0.0000       2.274585        61.8946 
 131   0.0000       2.274585        61.8946 
 132   0.0000       2.299752        62.5794 
 133   0.0000       2.299752        62.5794 
 134   0.0000       2.411795        65.6283 
 135   0.0000       2.637123        71.7598 
 136   0.0000       2.741924        74.6115 
 137   0.0000       2.741924        74.6115 
 138   0.0000       2.808527        76.4239 
 139   0.0000       2.808527        76.4239 
 140   0.0000       2.838581        77.2417 
 141   0.0000       2.838581        77.2417 
 142   0.0000       2.970801        80.8396 
 143   0.0000       3.164830        86.1194 
 144   0.0000       3.164830        86.1194 
 145   0.0000       3.273602        89.0792 
 146   0.0000       3.411143        92.8219 
 147   0.0000       3.431630        93.3794 
 148   0.0000       3.431630        93.3794 
 149   0.0000       3.518198        95.7350 
 150   0.0000       3.518198        95.7350 
 151   0.0000       3.840088       104.4941 
 152   0.0000       4.054171       110.3196 
 153   0.0000       4.072290       110.8126 
 154   0.0000       4.072290       110.8126 
 155   0.0000       4.260477       115.9335 
 156   0.0000       4.260477       115.9335 
 157   0.0000       4.401803       119.7791 
 158   0.0000       4.401803       119.7791 
 159   0.0000       4.699209       127.8720 
 160   0.0000       4.699209       127.8720 
 161   0.0000       4.718136       128.3870 
 162   0.0000       4.718136       128.3870 
 163   0.0000       4.722420       128.5036 
 164   0.0000       4.722420       128.5036 
 165   0.0000       4.753471       129.3485 
 166   0.0000       4.753471       129.3485 
 167   0.0000       4.930363       134.1620 
 168   0.0000       5.132163       139.6532 
 169   0.0000       5.132163       139.6532 
 170   0.0000       5.199071       141.4739 
 171   0.0000       5.199071       141.4739 
 172   0.0000       5.254053       142.9700 
 173   0.0000       5.640167       153.4767 
 174   0.0000       5.640167       153.4767 
 175   0.0000       5.962984       162.2611 
 176   0.0000       5.962984       162.2611 
 177   0.0000       5.982845       162.8015 
 178   0.0000       5.982845       162.8015 
 179   0.0000       6.166735       167.8054 
 180   0.0000       6.166735       167.8054 
 181   0.0000       6.279944       170.8860 
 182   0.0000       6.392498       173.9487 
 183   0.0000       6.630943       180.4371 
 184   0.0000       6.630943       180.4371 
 185   0.0000       6.803283       185.1268 
 186   0.0000       6.803283       185.1268 
 187   0.0000       7.005427       190.6274 
 188   0.0000       7.102453       193.2676 
 189   0.0000       7.102453       193.2676 
 190   0.0000       7.304692       198.7708 
 191   0.0000       7.427421       202.1104 
 192   0.0000       7.427421       202.1104 
 193   0.0000       7.477675       203.4779 
 194   0.0000       7.477675       203.4779 
 195   0.0000       7.558866       205.6872 
 196   0.0000       8.328378       226.6267 
 197   0.0000       8.721165       237.3150 
 198   0.0000       8.721165       237.3150 
 199   0.0000       8.835205       240.4181 
 200   0.0000       8.835205       240.4181 
 201   0.0000       9.116267       248.0662 
 202   0.0000       9.116267       248.0662 
 203   0.0000       9.734611       264.8922 
 204   0.0000      10.513158       286.0776 
 205   0.0000      10.636459       289.4328 
 206   0.0000      10.636459       289.4328 
 207   0.0000      10.682546       290.6869 
 208   0.0000      10.682546       290.6869 
 209   0.0000      10.743790       292.3534 
 210   0.0000      10.743790       292.3534 
 211   0.0000      10.772268       293.1283 
 212   0.0000      10.772268       293.1283 
 213   0.0000      11.160899       303.7035 
 214   0.0000      11.160899       303.7035 
 215   0.0000      11.195799       304.6532 
 216   0.0000      11.195799       304.6532 
 217   0.0000      11.261429       306.4390 
 218   0.0000      11.261429       306.4390 
 219   0.0000      11.302395       307.5538 
 220   0.0000      11.435361       311.1720 
 221   0.0000      11.435361       311.1720 
 222   0.0000      11.594270       315.4961 
 223   0.0000      11.594271       315.4961 
 224   0.0000      12.063129       328.2544 
 225   0.0000      12.085423       328.8611 
 226   0.0000      12.085423       328.8611 
 227   0.0000      12.144824       330.4775 
 228   0.0000      12.144824       330.4775 
 229   0.0000      12.540916       341.2557 
 230   0.0000      12.540916       341.2557 
 231   0.0000      12.699326       345.5662 
 232   0.0000      13.705118       372.9352 
 233   0.0000      13.705118       372.9352 
 234   0.0000      13.941232       379.3602 
 235   0.0000      13.941232       379.3602 
 236   0.0000      14.084011       383.2454 
 237   0.0000      14.084011       383.2454 
 238   0.0000      14.123634       384.3236 
 239   0.0000      14.123634       384.3236 
 240   0.0000      14.300845       389.1458 
 241   0.0000      14.300846       389.1458 
 242   0.0000      14.681773       399.5114 
 243   0.0000      14.681773       399.5114 
 244   0.0000      14.851091       404.1187 
 245   0.0000      14.917725       405.9319 
 246   0.0000      14.917725       405.9319 
 247   0.0000      15.007997       408.3884 
 248   0.0000      15.007997       408.3884 
 249   0.0000      15.029491       408.9732 
 250   0.0000      15.029491       408.9732 
 251   0.0000      15.469015       420.9333 
 252   0.0000      15.837126       430.9501 
 253   0.0000      15.837126       430.9501 
 254   0.0000      16.065325       437.1597 
 255   0.0000      16.300379       443.5559 
 256   0.0000      16.300380       443.5559 
 257   0.0000      16.310263       443.8248 
 258   0.0000      16.386277       445.8933 
 259   0.0000      16.386277       445.8933 
 260   0.0000      16.645709       452.9528 
 261   0.0000      16.645710       452.9528 
 262   0.0000      16.970644       461.7947 
 263   0.0000      16.970644       461.7947 
 264   0.0000      17.600099       478.9230 
 265   0.0000      17.944261       488.2882 
 266   0.0000      17.944261       488.2882 
 267   0.0000      19.500628       530.6391 
 268   0.0000      19.500628       530.6391 
 269   0.0000      20.883821       568.2777 
 270   0.0000      24.118753       656.3046 
 271   0.0000      24.277393       660.6214 
 272   0.0000      25.787092       701.7024 
 273   0.0000      25.787092       701.7024 
 274   0.0000      26.483776       720.6602 
 275   0.0000      26.483776       720.6602 
 276   0.0000      27.198632       740.1124 
 277   0.0000      30.491113       829.7054 
 278   0.0000      47.468406      1291.6810 
 279   0.0000      47.468410      1291.6811 
 280   0.0000      47.678891      1297.4086 
 281   0.0000      47.678895      1297.4087 
 282   0.0000      47.770082      1299.8900 
 283   0.0000      47.770082      1299.8900 
 284   0.0000      48.302987      1314.3911 
 285   0.0000      48.302987      1314.3911 
 286   0.0000      48.343689      1315.4987 
 287   0.0000      50.028569      1361.3466 
 288   0.0000     103.698908      2821.7907 
 289   0.0000     108.351465      2948.3933 

                    ********************************
                    * MULLIKEN POPULATION ANALYSIS *
                    ********************************

--------------------------------------------
MULLIKEN ATOMIC CHARGES AND SPIN POPULATIONS
--------------------------------------------
   0 N :    0.000014    0.000000
   1 N :   -0.000014   -0.000000
Sum of atomic charges         :   -0.0000000
Sum of atomic spin populations:   -0.0000000

-----------------------------------------------------
MULLIKEN REDUCED ORBITAL CHARGES AND SPIN POPULATIONS
-----------------------------------------------------
CHARGE
  0 N s       :     3.856994  s :     3.856994
      pz      :     1.128004  p :     3.068579
      px      :     0.970288
      py      :     0.970288
      dz2     :     0.013322  d :     0.065769
      dxz     :     0.026224
      dyz     :     0.026224
      dx2y2   :     0.000000
      dxy     :     0.000000
      f0      :     0.001369  f :     0.007542
      f+1     :     0.003086
      f-1     :     0.003086
      f+2     :    -0.000000
      f-2     :    -0.000000
      f+3     :     0.000000
      f-3     :     0.000000
      g0      :     0.000268  g :     0.001040
      g+1     :     0.000386
      g-1     :     0.000386
      g+2     :     0.000000
      g-2     :    -0.000000
      g+3     :     0.000000
      g-3     :     0.000000
      g+4     :     0.000000
      g-4     :     0.000000
      h0      :     0.000029  h :     0.000061
      h+1     :     0.000016
      h-1     :     0.000016
      h+2     :    -0.000000
      h-2     :    -0.000000
      h+3     :    -0.000000
      h-3     :    -0.000000
      h+4     :     0.000000
      h-4     :    -0.000000
      h+5     :     0.000000
      h-5     :     0.000000
  1 N s       :     3.857020  s :     3.857020
      pz      :     1.128005  p :     3.068580
      px      :     0.970288
      py      :     0.970288
      dz2     :     0.013322  d :     0.065770
      dxz     :     0.026224
      dyz     :     0.026224
      dx2y2   :     0.000000
      dxy     :     0.000000
      f0      :     0.001369  f :     0.007542
      f+1     :     0.003086
      f-1     :     0.003086
      f+2     :    -0.000000
      f-2     :    -0.000000
      f+3     :     0.000000
      f-3     :     0.000000
      g0      :     0.000268  g :     0.001040
      g+1     :     0.000386
      g-1     :     0.000386
      g+2     :     0.000000
      g-2     :    -0.000000
      g+3     :     0.000000
      g-3     :     0.000000
      g+4     :     0.000000
      g-4     :     0.000000
      h0      :     0.000029  h :     0.000061
      h+1     :     0.000016
      h-1     :     0.000016
      h+2     :    -0.000000
      h-2     :    -0.000000
      h+3     :    -0.000000
      h-3     :    -0.000000
      h+4     :     0.000000
      h-4     :    -0.000000
      h+5     :     0.000000
      h-5     :     0.000000

SPIN
  0 N s       :     0.000000  s :     0.000000
      pz      :     0.000000  p :     0.000000
      px      :     0.000000
      py      :     0.000000
      dz2     :     0.000000  d :     0.000000
      dxz     :     0.000000
      dyz     :    -0.000000
      dx2y2   :    -0.000000
      dxy     :     0.000000
      f0      :     0.000000  f :     0.000000
      f+1     :    -0.000000
      f-1     :     0.000000
      f+2     :     0.000000
      f-2     :     0.000000
      f+3     :     0.000000
      f-3     :     0.000000
      g0      :    -0.000000  g :    -0.000000
      g+1     :    -0.000000
      g-1     :     0.000000
      g+2     :    -0.000000
      g-2     :    -0.000000
      g+3     :    -0.000000
      g-3     :     0.000000
      g+4     :     0.000000
      g-4     :    -0.000000
      h0      :    -0.000000  h :    -0.000000
      h+1     :    -0.000000
      h-1     :     0.000000
      h+2     :     0.000000
      h-2     :    -0.000000
      h+3     :    -0.000000
      h-3     :     0.000000
      h+4     :     0.000000
      h-4     :     0.000000
      h+5     :    -0.000000
      h-5     :    -0.000000
  1 N s       :    -0.000000  s :    -0.000000
      pz      :     0.000000  p :     0.000000
      px      :    -0.000000
      py      :    -0.000000
      dz2     :     0.000000  d :     0.000000
      dxz     :    -0.000000
      dyz     :     0.000000
      dx2y2   :    -0.000000
      dxy     :    -0.000000
      f0      :     0.000000  f :     0.000000
      f+1     :     0.000000
      f-1     :    -0.000000
      f+2     :     0.000000
      f-2     :    -0.000000
      f+3     :     0.000000
      f-3     :    -0.000000
      g0      :     0.000000  g :     0.000000
      g+1     :     0.000000
      g-1     :    -0.000000
      g+2     :    -0.000000
      g-2     :     0.000000
      g+3     :     0.000000
      g-3     :     0.000000
      g+4     :    -0.000000
      g-4     :     0.000000
      h0      :    -0.000000  h :     0.000000
      h+1     :     0.000000
      h-1     :    -0.000000
      h+2     :    -0.000000
      h-2     :    -0.000000
      h+3     :     0.000000
      h-3     :     0.000000
      h+4     :    -0.000000
      h-4     :     0.000000
      h+5     :    -0.000000
      h-5     :    -0.000000


                     *******************************
                     * LOEWDIN POPULATION ANALYSIS *
                     *******************************

-------------------------------------------
LOEWDIN ATOMIC CHARGES AND SPIN POPULATIONS
-------------------------------------------
   0 N :    0.000000    0.000000
   1 N :   -0.000000   -0.000000

----------------------------------------------------
LOEWDIN REDUCED ORBITAL CHARGES AND SPIN POPULATIONS
----------------------------------------------------
CHARGE
  0 N s       :     3.248462  s :     3.248462
      pz      :     1.474103  p :     3.222237
      px      :     0.874067
      py      :     0.874067
      dz2     :     0.208248  d :     0.367032
      dxz     :     0.079392
      dyz     :     0.079392
      dx2y2   :     0.000000
      dxy     :     0.000000
      f0      :     0.052642  f :     0.123495
      f+1     :     0.035426
      f-1     :     0.035426
      f+2     :     0.000000
      f-2     :     0.000000
      f+3     :     0.000000
      f-3     :     0.000000
      g0      :     0.013547  g :     0.032448
      g+1     :     0.009450
      g-1     :     0.009450
      g+2     :     0.000000
      g-2     :     0.000000
      g+3     :     0.000000
      g-3     :     0.000000
      g+4     :     0.000000
      g-4     :     0.000000
      h0      :     0.002999  h :     0.006327
      h+1     :     0.001664
      h-1     :     0.001664
      h+2     :     0.000000
      h-2     :     0.000000
      h+3     :     0.000000
      h-3     :     0.000000
      h+4     :     0.000000
      h-4     :     0.000000
      h+5     :     0.000000
      h-5     :     0.000000
  1 N s       :     3.248462  s :     3.248462
      pz      :     1.474103  p :     3.222237
      px      :     0.874067
      py      :     0.874067
      dz2     :     0.208248  d :     0.367032
      dxz     :     0.079392
      dyz     :     0.079392
      dx2y2   :     0.000000
      dxy     :     0.000000
      f0      :     0.052642  f :     0.123495
      f+1     :     0.035426
      f-1     :     0.035426
      f+2     :     0.000000
      f-2     :     0.000000
      f+3     :     0.000000
      f-3     :     0.000000
      g0      :     0.013547  g :     0.032448
      g+1     :     0.009450
      g-1     :     0.009450
      g+2     :     0.000000
      g-2     :     0.000000
      g+3     :     0.000000
      g-3     :     0.000000
      g+4     :     0.000000
      g-4     :     0.000000
      h0      :     0.002999  h :     0.006327
      h+1     :     0.001664
      h-1     :     0.001664
      h+2     :     0.000000
      h-2     :     0.000000
      h+3     :     0.000000
      h-3     :     0.000000
      h+4     :     0.000000
      h-4     :     0.000000
      h+5     :     0.000000
      h-5     :     0.000000

SPIN
  0 N s       :     0.000000  s :     0.000000
      pz      :     0.000000  p :     0.000000
      px      :    -0.000000
      py      :    -0.000000
      dz2     :     0.000000  d :     0.000000
      dxz     :     0.000000
      dyz     :    -0.000000
      dx2y2   :    -0.000000
      dxy     :     0.000000
      f0      :    -0.000000  f :    -0.000000
      f+1     :    -0.000000
      f-1     :    -0.000000
      f+2     :     0.000000
      f-2     :     0.000000
      f+3     :     0.000000
      f-3     :     0.000000
      g0      :     0.000000  g :     0.000000
      g+1     :     0.000000
      g-1     :     0.000000
      g+2     :    -0.000000
      g-2     :    -0.000000
      g+3     :     0.000000
      g-3     :    -0.000000
      g+4     :     0.000000
      g-4     :     0.000000
      h0      :     0.000000  h :     0.000000
      h+1     :    -0.000000
      h-1     :    -0.000000
      h+2     :    -0.000000
      h-2     :    -0.000000
      h+3     :    -0.000000
      h-3     :     0.000000
      h+4     :     0.000000
      h-4     :     0.000000
      h+5     :    -0.000000
      h-5     :    -0.000000
  1 N s       :    -0.000000  s :    -0.000000
      pz      :     0.000000  p :     0.000000
      px      :     0.000000
      py      :     0.000000
      dz2     :     0.000000  d :     0.000000
      dxz     :    -0.000000
      dyz     :    -0.000000
      dx2y2   :    -0.000000
      dxy     :     0.000000
      f0      :     0.000000  f :     0.000000
      f+1     :     0.000000
      f-1     :     0.000000
      f+2     :    -0.000000
      f-2     :     0.000000
      f+3     :     0.000000
      f-3     :    -0.000000
      g0      :    -0.000000  g :    -0.000000
      g+1     :    -0.000000
      g-1     :    -0.000000
      g+2     :    -0.000000
      g-2     :     0.000000
      g+3     :    -0.000000
      g-3     :     0.000000
      g+4     :    -0.000000
      g-4     :     0.000000
      h0      :     0.000000  h :     0.000000
      h+1     :     0.000000
      h-1     :     0.000000
      h+2     :    -0.000000
      h-2     :    -0.000000
      h+3     :     0.000000
      h-3     :    -0.000000
      h+4     :    -0.000000
      h-4     :     0.000000
      h+5     :    -0.000000
      h-5     :    -0.000000


                      *****************************
                      * MAYER POPULATION ANALYSIS *
                      *****************************

  NA   - Mulliken gross atomic population
  ZA   - Total nuclear charge
  QA   - Mulliken gross atomic charge
  VA   - Mayer's total valence
  BVA  - Mayer's bonded valence
  FA   - Mayer's free valence

  ATOM       NA         ZA         QA         VA         BVA        FA
  0 N      7.0000     7.0000     0.0000     2.6877     2.6877    -0.0000
  1 N      7.0000     7.0000    -0.0000     2.6877     2.6877    -0.0000

  Mayer bond orders larger than 0.1
B(  0-N ,  1-N ) :   2.6877 

-------
TIMINGS
-------

Total SCF time: 0 days 0 hours 16 min 23 sec 

Total time                  ....     983.145 sec
Sum of individual times     ....     982.652 sec  ( 99.9%)

Fock matrix formation       ....     978.088 sec  ( 99.5%)
  XC integration            ....      44.063 sec  (  4.5% of F)
    Basis function eval.    ....       3.591 sec  (  8.1% of XC)
    Density eval.           ....       9.797 sec  ( 22.2% of XC)
    XC-Functional eval.     ....       0.546 sec  (  1.2% of XC)
    XC-Potential eval.      ....      29.586 sec  ( 67.1% of XC)
Diagonalization             ....       0.475 sec  (  0.0%)
Density matrix formation    ....       0.010 sec  (  0.0%)
Population analysis         ....       0.055 sec  (  0.0%)
Initial guess               ....       2.247 sec  (  0.2%)
Orbital Transformation      ....       0.000 sec  (  0.0%)
Orbital Orthonormalization  ....       0.000 sec  (  0.0%)
DIIS solution               ....       0.265 sec  (  0.0%)
Grid generation             ....       1.511 sec  (  0.2%)

-------------------------   --------------------
FINAL SINGLE POINT ENERGY      -109.460229068123
-------------------------   --------------------


                            ***************************************
                            *     ORCA property calculations      *
                            ***************************************

                                    ---------------------
                                    Active property flags
                                    ---------------------
   (+) Dipole Moment
   (+) Polarizability


------------------------------------------------------------------------------
                       ORCA ELECTRIC PROPERTIES CALCULATION
------------------------------------------------------------------------------

Dipole Moment Calculation                       ... on
Quadrupole Moment Calculation                   ... off
Polarizability Calculation                      ... Analytic (CP-SCF)
GBWName                                         ... n2_pbe.gbw
Electron density file                           ... n2_pbe.scfp.tmp
The origin for moment calculation is the CENTER OF MASS  = ( 0.000000,  0.000000  0.000000)

-------------
DIPOLE MOMENT
-------------
                                X             Y             Z
Electronic contribution:     -0.00000      -0.00000      -0.00000
Nuclear contribution   :      0.00000       0.00000       0.00000
                        -----------------------------------------
Total Dipole Moment    :     -0.00000      -0.00000      -0.00000
                        -----------------------------------------
Magnitude (a.u.)       :      0.00000
Magnitude (Debye)      :      0.00000



--------------------
Rotational spectrum 
--------------------
 
Rotational constants in cm-1:     0.000000     1.997991     1.997991 
Rotational constants in MHz :     0.000000 59898.269323 59898.269323 

 Dipole components along the rotational axes: 
x,y,z [a.u.] :    -0.000000    -0.000000    -0.000000 
x,y,z [Debye]:    -0.000000    -0.000000    -0.000000 

 
Transforming and storing MO dipole integrals   ... done

                ... starting polarizability calculation

Opening the Dipole integral file               ... (n2_pbe.dmo.tmp) done
Reading Dipole-MO integrals                    ... done
Solving CP-SCF equations                       ... 
------------------------------------------------------------------------------
                           ORCA CP-SCF CALCULATION
------------------------------------------------------------------------------

Input orbitals are from        ... n2_pbe.gbw
Input Perturbation             ... n2_pbe.cpv.tmp
Wavefunction output            ... n2_pbe.cpu.tmp
Perturbation mode              ... Real perturbation (singlet)
Solver                         ... POPLE
Max. number of iterations      ... 200
Convergence tolerance          ... 1.000e-06
Integral handling              ... Direct
Number of perturbations        ... 3
Number of operators            ... 2
Orbital ranges used for CP-SCF:
 Operator 0:  Orbitals   0...  6  to   7...289
 Operator 1:  Orbitals   0...  6  to   7...289
DFT calculation                         ... on
Exchange functional (SCF)               ... PBE
Exchange functional (CP-SCF)            ... PBE
   PBE kappa parameter  XKappa (SCF)    ...  0.804000
   PBE kappa parameter  XKappa (CP-SCF) ...  0.804000
   PBE mue parameter   XMuePBE (SCF)    ...  0.219520
   PBE mue parameter   XMuePBE (CP-SCF) ...  0.219520
Correlation functional (SCF)            ... PBE
Correlation functional (CP-SCF)         ... PBE
   PBE beta parameter CBetaPBE (SCF)    ...  0.066725
   PBE beta parameter CBetaPBE (CP-SCF) ...  0.066725
 LDA part of GGA corr.  LDAOpt (SCF)    ... PW91-LDA
 LDA part of GGA corr.  LDAOpt (CP-SCF) ... PW91-LDA
Variables per vector in CP-SCF ... 3962
Number of vectors sought       ... 3
Recalculating density on grid  ... done
Calculating the xc-kernel      ... done
     CP-SCF ITERATION   0: 
     CP-SCF ITERATION   1:      0.018104085256
     CP-SCF ITERATION   2:      0.000050182385
     CP-SCF ITERATION   3:      0.000000538973
done
Reading CP-SCF coefficients                    ... done
Doing the polarizability tensor   ... done
Cleaning up                                    ... done

-------------------------
THE POLARIZABILITY TENSOR
-------------------------

The raw cartesian tensor (atomic units):
   10.66836      0.00000      0.00000  
    0.00000     10.66836     -0.00000  
    0.00000     -0.00000     15.41393  
diagonalized tensor: 
   10.66836     10.66836     15.41393  

    0.44761      0.89423      0.00000  
   -0.89423      0.44761     -0.00000  
   -0.00000     -0.00000      1.00000  

Isotropic polarizability :  12.25022


Timings for individual modules:

Sum of individual times         ...     1521.240 sec (=  25.354 min)
GTO integral calculation        ...        1.112 sec (=   0.019 min)   0.1 %
SCF iterations                  ...      983.173 sec (=  16.386 min)  64.6 %
Solution of CP-SCF eqns.        ...      536.955 sec (=   8.949 min)  35.3 %
                             ****ORCA TERMINATED NORMALLY****
TOTAL RUN TIME: 0 days 0 hours 25 minutes 21 seconds 568 msec
