
                                 *****************
                                 * O   R   C   A *
                                 *****************

           --- An Ab Initio, DFT and Semiempirical electronic structure package ---

                  #######################################################
                  #                        -***-                        #
                  #          Department of theory and spectroscopy      #
                  #               Directorship: Frank Neese             #
                  #        Max Planck Institute fuer Kohlenforschung    #
                  #                Kaiser Wilhelm Platz 1               #
                  #                 D-45470 Muelheim/Ruhr               #
                  #                      Germany                        #
                  #                                                     #
                  #                  All rights reserved                #
                  #                        -***-                        #
                  #######################################################


                         Program Version 4.1.2  - RELEASE  -


 With contributions from (in alphabetic order):
   Daniel Aravena         : Magnetic Properties
   Michael Atanasov       : Ab Initio Ligand Field Theory
   Alexander A. Auer      : GIAO ZORA
   Ute Becker             : Parallelization
   Giovanni Bistoni       : ED, Open-shell LED
   Martin Brehm           : Molecular dynamics
   Dmytro Bykov           : SCF Hessian
   Vijay G. Chilkuri      : MRCI spin determinant printing
   Dipayan Datta          : RHF DLPNO-CCSD density
   Achintya Kumar Dutta   : EOM-CC, STEOM-CC
   Dmitry Ganyushin       : Spin-Orbit,Spin-Spin,Magnetic field MRCI
   Miquel Garcia          : C-PCM Hessian
   Yang Guo               : DLPNO-NEVPT2, CIM, IAO-localization
   Andreas Hansen         : Spin unrestricted coupled pair/coupled cluster methods
   Benjamin Helmich-Paris : CASSCF linear response (MC-RPA)
   Lee Huntington         : MR-EOM, pCC
   Robert Izsak           : Overlap fitted RIJCOSX, COSX-SCS-MP3, EOM
   Christian Kollmar      : KDIIS, OOCD, Brueckner-CCSD(T), CCSD density
   Simone Kossmann        : Meta GGA functionals, TD-DFT gradient, OOMP2, MP2 Hessian
   Martin Krupicka        : AUTO-CI
   Lucas Lang             : DCDCAS
   Dagmar Lenk            : GEPOL surface, SMD
   Dimitrios Liakos       : Extrapolation schemes; parallel MDCI
   Dimitrios Manganas     : ROCIS; embedding schemes
   Dimitrios Pantazis     : SARC Basis sets
   Taras Petrenko         : DFT Hessian,TD-DFT gradient, ASA, ECA, R-Raman, ABS, FL, XAS/XES, NRVS
   Peter Pinski           : DLPNO-MP2, DLPNO-MP2 Gradient
   Christoph Reimann      : Effective Core Potentials
   Marius Retegan         : Local ZFS, SOC
   Christoph Riplinger    : Optimizer, TS searches, QM/MM, DLPNO-CCSD(T), (RO)-DLPNO pert. Triples
   Tobias Risthaus        : Range-separated hybrids, TD-DFT gradient, RPA, STAB
   Michael Roemelt        : Restricted open shell CIS
   Masaaki Saitow         : Open-shell DLPNO
   Barbara Sandhoefer     : DKH picture change effects
   Avijit Sen             : IP-ROCIS
   Kantharuban Sivalingam : CASSCF convergence, NEVPT2, FIC-MRCI
   Bernardo de Souza      : ESD, SOC TD-DFT
   Georgi Stoychev        : AutoAux, RI-MP2 NMR
   Willem Van den Heuvel  : Paramagnetic NMR
   Boris Wezisla          : Elementary symmetry handling
   Frank Wennmohs         : Technical directorship


 We gratefully acknowledge several colleagues who have allowed us to
 interface, adapt or use parts of their codes:
   Stefan Grimme, W. Hujo, H. Kruse,             : VdW corrections, initial TS optimization,
                  C. Bannwarth                     DFT functionals, gCP, sTDA/sTD-DF
   Ed Valeev                                     : LibInt (2-el integral package), F12 methods
   Garnet Chan, S. Sharma, J. Yang, R. Olivares  : DMRG
   Ulf Ekstrom                                   : XCFun DFT Library
   Mihaly Kallay                                 : mrcc  (arbitrary order and MRCC methods)
   Andreas Klamt, Michael Diedenhofen            : otool_cosmo (COSMO solvation model)
   Jiri Pittner, Ondrej Demel                    : Mk-CCSD
   Frank Weinhold                                : gennbo (NPA and NBO analysis)
   Christopher J. Cramer and Donald G. Truhlar   : smd solvation model
   Lars Goerigk                                  : TD-DFT with DH, B97 family of functionals
   V. Asgeirsson, H. Jonsson                     : NEB implementation
   FAccTs GmbH                                   : IRC, NEB, NEB-TS, Multilevel


 Your calculation uses the libint2 library for the computation of 2-el integrals
 For citations please refer to: http://libint.valeyev.net

 This ORCA versions uses:
   CBLAS   interface :  Fast vector & matrix operations
   LAPACKE interface :  Fast linear algebra routines
   SCALAPACK package :  Parallel linear algebra routines


----- Orbital basis set information -----
Your calculation utilizes the basis: aug-pc-4
   H, C-F              : F. Jensen, J. Chem. Phys. 115, 9113 (2001).
                         F. Jensen, J. Chem. Phys. 116, 7372 (2002).
                         F. Jensen, J. Chem. Phys. 117, 9234 (2002).
   Si-Cl               : F. Jensen, T. Helgaker, J. Chem. Phys. 121, 3463 (2004).
   He-B, Ne-Mg, Al, Ar : F. Jensen, J. Phys. Chem. A 111, 11198 (2007).
   K, Ca, Ga-Kr        : F. Jensen, J. Chem. Phys. 136, 094110 (2012).
   Sc-Zn               : F. Jensen, J. Chem. Phys. 138, 014107 (2013).

================================================================================
                                        WARNINGS
                       Please study these warnings very carefully!
================================================================================


INFO   : the flag for use of LIBINT has been found!

================================================================================
                                       INPUT FILE
================================================================================
NAME = n2h2_pbe.inp
|  1> !uks pbe nori aug-pc-4 grid7 nofinalgrid verytightscf
|  2> 
|  3> %maxcore 1500
|  4> 
|  5> %pal nprocs 1 end
|  6> 
|  7> %scf
|  8> 	maxiter 200
|  9> end
| 10> %elprop
| 11> 	dipole true
| 12> 	 polar 1
| 13> 	 maxiter 200
| 14> end
| 15> 
| 16> * xyz 0 1
| 17> N 0.0000000000 0.0000000000 0.0000000000
| 18> H 0.0000000000 0.0000000000 1.0337770000
| 19> N 1.1649590602 0.0000000000 -0.4597566182
| 20> H 1.8709666930 0.0000000000 0.2953911212
| 21> *
| 22> 
| 23>                          ****END OF INPUT****
================================================================================

                       ****************************
                       * Single Point Calculation *
                       ****************************

---------------------------------
CARTESIAN COORDINATES (ANGSTROEM)
---------------------------------
  N      0.000000    0.000000    0.000000
  H      0.000000    0.000000    1.033777
  N      1.164959    0.000000   -0.459757
  H      1.870967    0.000000    0.295391

----------------------------
CARTESIAN COORDINATES (A.U.)
----------------------------
  NO LB      ZA    FRAG     MASS         X           Y           Z
   0 N     7.0000    0    14.007    0.000000    0.000000    0.000000
   1 H     1.0000    0     1.008    0.000000    0.000000    1.953555
   2 N     7.0000    0    14.007    2.201454    0.000000   -0.868814
   3 H     1.0000    0     1.008    3.535615    0.000000    0.558208

--------------------------------
INTERNAL COORDINATES (ANGSTROEM)
--------------------------------
 N      0   0   0     0.000000000000     0.00000000     0.00000000
 H      1   0   0     1.033777000000     0.00000000     0.00000000
 N      1   2   0     1.252399999968   111.53690600     0.00000000
 H      3   1   2     1.033777000079   111.53690600     0.00000000

---------------------------
INTERNAL COORDINATES (A.U.)
---------------------------
 N      0   0   0     0.000000000000     0.00000000     0.00000000
 H      1   0   0     1.953555413547     0.00000000     0.00000000
 N      1   2   0     2.366693010063   111.53690600     0.00000000
 H      3   1   2     1.953555413696   111.53690600     0.00000000

---------------------
BASIS SET INFORMATION
---------------------
There are 2 groups of distinct atoms

 Group   1 Type N   : 27s12p7d4f3g2h contracted to 9s8p7d4f3g2h pattern {1191111111/51111111/1111111/1111/111/11}
 Group   2 Type H   : 12s7p4d3f2g contracted to 8s7p4d3f2g pattern {51111111/1111111/1111/111/11}

Atom   0N    basis set group =>   1
Atom   1H    basis set group =>   2
Atom   2N    basis set group =>   1
Atom   3H    basis set group =>   2
------------------------------------------------------------------------------
                           ORCA GTO INTEGRAL CALCULATION
------------------------------------------------------------------------------

                         BASIS SET STATISTICS AND STARTUP INFO

 # of primitive gaussian shells          ...  166
 # of primitive gaussian functions       ...  534
 # of contracted shells                  ...  114
 # of contracted basis functions         ...  466
 Highest angular momentum                ...    5
 Maximum contraction depth               ...   11
 Integral package used                   ... LIBINT
 Integral threshhold            Thresh   ...  1.000e-12
 Primitive cut-off              TCut     ...  1.000e-14


------------------------------ INTEGRAL EVALUATION ----------------------------


 * One electron integrals 
 Pre-screening matrix                    ... done
 Shell pair data                         ... done (   0.002 sec)

-------------------------------------------------------------------------------
                                 ORCA SCF
-------------------------------------------------------------------------------

------------
SCF SETTINGS
------------
Hamiltonian:
 Density Functional     Method          .... DFT(GTOs)
 Exchange Functional    Exchange        .... PBE
   PBE kappa parameter   XKappa         ....  0.804000
   PBE mue parameter    XMuePBE         ....  0.219520
 Correlation Functional Correlation     .... PBE
   PBE beta parameter  CBetaPBE         ....  0.066725
 LDA part of GGA corr.  LDAOpt          .... PW91-LDA
 Gradients option       PostSCFGGA      .... off
   Density functional embedding theory  .... OFF
   NL short-range parameter             ....  6.400000


General Settings:
 Integral files         IntName         .... n2h2_pbe
 Hartree-Fock type      HFTyp           .... UHF
 Total Charge           Charge          ....    0
 Multiplicity           Mult            ....    1
 Number of Electrons    NEL             ....   16
 Basis Dimension        Dim             ....  466
 Nuclear Repulsion      ENuc            ....     32.0447650164 Eh

Convergence Acceleration:
 DIIS                   CNVDIIS         .... on
   Start iteration      DIISMaxIt       ....    12
   Startup error        DIISStart       ....  0.200000
   # of expansion vecs  DIISMaxEq       ....     5
   Bias factor          DIISBfac        ....   1.050
   Max. coefficient     DIISMaxC        ....  10.000
 Newton-Raphson         CNVNR           .... off
 SOSCF                  CNVSOSCF        .... off
 Level Shifting         CNVShift        .... on
   Level shift para.    LevelShift      ....    0.2500
   Turn off err/grad.   ShiftErr        ....    0.0010
 Zerner damping         CNVZerner       .... off
 Static damping         CNVDamp         .... on
   Fraction old density DampFac         ....    0.7000
   Max. Damping (<1)    DampMax         ....    0.9800
   Min. Damping (>=0)   DampMin         ....    0.0000
   Turn off err/grad.   DampErr         ....    0.1000
 Fernandez-Rico         CNVRico         .... off

SCF Procedure:
 Maximum # iterations   MaxIter         ....   200
 SCF integral mode      SCFMode         .... Direct
   Integral package                     .... LIBINT
 Reset frequency        DirectResetFreq ....    20
 Integral Threshold     Thresh          ....  1.000e-12 Eh
 Primitive CutOff       TCut            ....  1.000e-14 Eh

Convergence Tolerance:
 Convergence Check Mode ConvCheckMode   .... Total+1el-Energy
 Convergence forced     ConvForced      .... 0
 Energy Change          TolE            ....  1.000e-09 Eh
 1-El. energy change                    ....  1.000e-06 Eh
 DIIS Error             TolErr          ....  1.000e-08


Diagonalization of the overlap matrix:
Smallest eigenvalue                        ... 1.226e-07
Time for diagonalization                   ...    0.043 sec
Threshold for overlap eigenvalues          ... 1.000e-08
Number of eigenvalues below threshold      ... 0
Time for construction of square roots      ...    0.030 sec
Total time needed                          ...    0.074 sec

-------------------
DFT GRID GENERATION
-------------------

General Integration Accuracy     IntAcc      ...  5.670
Radial Grid Type                 RadialGrid  ... Gauss-Chebyshev
Angular Grid (max. acc.)         AngularGrid ... Lebedev-770
Angular grid pruning method      GridPruning ... 3 (G Style)
Weight generation scheme         WeightScheme... Becke
Basis function cutoff            BFCut       ...    1.0000e-12
Integration weight cutoff        WCut        ...    1.0000e-14
Grids for H and He will be reduced by one unit

# of grid points (after initial pruning)     ...  85740 (   0.0 sec)
# of grid points (after weights+screening)   ...  84193 (   0.0 sec)
nearest neighbour list constructed           ...    0.0 sec
Grid point re-assignment to atoms done       ...    0.0 sec
Grid point division into batches done        ...    1.5 sec
Reduced shell lists constructed in    2.6 sec

Total number of grid points                  ...    84193
Total number of batches                      ...     1318
Average number of points per batch           ...       63
Average number of grid points per atom       ...    21048
Average number of shells per batch           ...    86.06 (75.49%)
Average number of basis functions per batch  ...   363.21 (77.94%)
Average number of large shells per batch     ...    76.77 (89.21%)
Average number of large basis fcns per batch ...   324.39 (89.31%)
Maximum spatial batch extension              ...  14.13, 15.74, 14.31 au
Average spatial batch extension              ...   1.89,  1.96,  1.85 au

Time for grid setup =    2.675 sec

------------------------------
INITIAL GUESS: MODEL POTENTIAL
------------------------------
Loading Hartree-Fock densities                     ... done
Calculating cut-offs                               ... done
Setting up the integral package                    ... done
Initializing the effective Hamiltonian             ... done
Starting the Coulomb interaction                   ... done (   0.1 sec)
Reading the grid                                   ... done
Mapping shells                                     ... done
Starting the XC term evaluation                    ... done (   7.7 sec)
  promolecular density results
     # of electrons  =     15.999020584
     EX              =    -13.589601192
     EC              =     -0.511341049
     EX+EC           =    -14.100942242
Transforming the Hamiltonian                       ... done (   0.0 sec)
Diagonalizing the Hamiltonian                      ... done (   0.0 sec)
Back transforming the eigenvectors                 ... done (   0.0 sec)
Now organizing SCF variables                       ... done
                      ------------------
                      INITIAL GUESS DONE (  10.7 sec)
                      ------------------
--------------
SCF ITERATIONS
--------------
ITER       Energy         Delta-E        Max-DP      RMS-DP      [F,P]     Damp
               ***  Starting incremental Fock matrix formation  ***
  0   -110.5193166692   0.000000000000 0.01531624  0.00017437  0.1506599 0.7000
  1   -110.5422845023  -0.022967833082 0.01545596  0.00013908  0.0660177 0.7000
                               ***Turning on DIIS***
  2   -110.5501174456  -0.007832943298 0.02240211  0.00020380  0.0149050 0.0000
  3   -110.5613846800  -0.011267234393 0.01384538  0.00010855  0.0461772 0.0000
  4   -110.5652555206  -0.003870840594 0.00615738  0.00004725  0.0079017 0.0000
  5   -110.5654604239  -0.000204903286 0.00101442  0.00001153  0.0018137 0.0000
  6   -110.5654762758  -0.000015851960 0.00067918  0.00001079  0.0004180 0.0000
  7   -110.5654781685  -0.000001892719 0.00017503  0.00000119  0.0000860 0.0000
  8   -110.5654781860  -0.000000017421 0.00001358  0.00000015  0.0000198 0.0000
  9   -110.5654781867  -0.000000000726 0.00005636  0.00000046  0.0000035 0.0000
 10   -110.5654781867  -0.000000000037 0.00011306  0.00000097  0.0000012 0.0000
                 **** Energy Check signals convergence ****

               *****************************************************
               *                     SUCCESS                       *
               *           SCF CONVERGED AFTER  11 CYCLES          *
               *****************************************************


----------------
TOTAL SCF ENERGY
----------------

Total Energy       :         -110.56547819 Eh           -3008.63962 eV

Components:
Nuclear Repulsion  :           32.04476502 Eh             871.98239 eV
Electronic Energy  :         -142.61024320 Eh           -3880.62200 eV
One Electron Energy:         -212.72514021 Eh           -5788.54535 eV
Two Electron Energy:           70.11489701 Eh            1907.92334 eV

Virial components:
Potential Energy   :         -220.73129375 Eh           -6006.40386 eV
Kinetic Energy     :          110.16581556 Eh            2997.76424 eV
Virial Ratio       :            2.00362783


DFT components:
N(Alpha)           :        7.999999938979 electrons
N(Beta)            :        7.999999938979 electrons
N(Total)           :       15.999999877958 electrons
E(X)               :      -13.822169560883 Eh       
E(C)               :       -0.516249151966 Eh       
E(XC)              :      -14.338418712848 Eh       
DFET-embed. en.    :        0.000000000000 Eh       

---------------
SCF CONVERGENCE
---------------

  Last Energy change         ...   -1.0232e-12  Tolerance :   1.0000e-09
  Last MAX-Density change    ...    3.3886e-05  Tolerance :   1.0000e-08
  Last RMS-Density change    ...    4.4257e-07  Tolerance :   1.0000e-09
  Last DIIS Error            ...    2.2670e-06  Tolerance :   1.0000e-08

             **** THE GBW FILE WAS UPDATED (n2h2_pbe.gbw) ****
             **** DENSITY FILE WAS UPDATED (n2h2_pbe.scfp.tmp) ****
             **** ENERGY FILE WAS UPDATED (n2h2_pbe.en.tmp) ****
----------------------
UHF SPIN CONTAMINATION
----------------------

Warning: in a DFT calculation there is little theoretical justification to 
         calculate <S**2> as in Hartree-Fock theory. We will do it anyways
         but you should keep in mind that the values have only limited relevance

Expectation value of <S**2>     :     0.000000
Ideal value S*(S+1) for S=0.0   :     0.000000
Deviation                       :     0.000000

----------------
ORBITAL ENERGIES
----------------
                 SPIN UP ORBITALS
  NO   OCC          E(Eh)            E(eV) 
   0   1.0000     -14.049921      -382.3178 
   1   1.0000     -14.049658      -382.3106 
   2   1.0000      -0.954470       -25.9724 
   3   1.0000      -0.628061       -17.0904 
   4   1.0000      -0.518150       -14.0996 
   5   1.0000      -0.367983       -10.0133 
   6   1.0000      -0.337024        -9.1709 
   7   1.0000      -0.215482        -5.8635 
   8   0.0000      -0.115509        -3.1432 
   9   0.0000      -0.037830        -1.0294 
  10   0.0000       0.003266         0.0889 
  11   0.0000       0.020097         0.5469 
  12   0.0000       0.022374         0.6088 
  13   0.0000       0.035317         0.9610 
  14   0.0000       0.040983         1.1152 
  15   0.0000       0.044857         1.2206 
  16   0.0000       0.049391         1.3440 
  17   0.0000       0.052362         1.4248 
  18   0.0000       0.066188         1.8011 
  19   0.0000       0.072996         1.9863 
  20   0.0000       0.092984         2.5302 
  21   0.0000       0.103701         2.8218 
  22   0.0000       0.107478         2.9246 
  23   0.0000       0.108631         2.9560 
  24   0.0000       0.113395         3.0856 
  25   0.0000       0.124314         3.3828 
  26   0.0000       0.129671         3.5285 
  27   0.0000       0.134058         3.6479 
  28   0.0000       0.136427         3.7124 
  29   0.0000       0.148938         4.0528 
  30   0.0000       0.155186         4.2228 
  31   0.0000       0.163202         4.4410 
  32   0.0000       0.172004         4.6805 
  33   0.0000       0.184571         5.0224 
  34   0.0000       0.186022         5.0619 
  35   0.0000       0.187867         5.1121 
  36   0.0000       0.208377         5.6702 
  37   0.0000       0.209629         5.7043 
  38   0.0000       0.215422         5.8619 
  39   0.0000       0.218095         5.9347 
  40   0.0000       0.225191         6.1278 
  41   0.0000       0.228915         6.2291 
  42   0.0000       0.229172         6.2361 
  43   0.0000       0.231360         6.2956 
  44   0.0000       0.241480         6.5710 
  45   0.0000       0.245748         6.6871 
  46   0.0000       0.251879         6.8540 
  47   0.0000       0.259696         7.0667 
  48   0.0000       0.270462         7.3596 
  49   0.0000       0.286442         7.7945 
  50   0.0000       0.296760         8.0753 
  51   0.0000       0.302543         8.2326 
  52   0.0000       0.325982         8.8704 
  53   0.0000       0.332182         9.0391 
  54   0.0000       0.332340         9.0434 
  55   0.0000       0.335857         9.1391 
  56   0.0000       0.341172         9.2838 
  57   0.0000       0.351977         9.5778 
  58   0.0000       0.369116        10.0442 
  59   0.0000       0.369987        10.0679 
  60   0.0000       0.370960        10.0943 
  61   0.0000       0.378508        10.2997 
  62   0.0000       0.379658        10.3310 
  63   0.0000       0.390400        10.6233 
  64   0.0000       0.393622        10.7110 
  65   0.0000       0.400050        10.8859 
  66   0.0000       0.407848        11.0981 
  67   0.0000       0.411007        11.1841 
  68   0.0000       0.420584        11.4447 
  69   0.0000       0.427765        11.6401 
  70   0.0000       0.430932        11.7263 
  71   0.0000       0.439285        11.9535 
  72   0.0000       0.458498        12.4764 
  73   0.0000       0.459883        12.5141 
  74   0.0000       0.463144        12.6028 
  75   0.0000       0.469469        12.7749 
  76   0.0000       0.470128        12.7928 
  77   0.0000       0.472575        12.8594 
  78   0.0000       0.484031        13.1712 
  79   0.0000       0.485613        13.2142 
  80   0.0000       0.491013        13.3612 
  81   0.0000       0.496066        13.4987 
  82   0.0000       0.503030        13.6881 
  83   0.0000       0.525545        14.3008 
  84   0.0000       0.529781        14.4161 
  85   0.0000       0.538745        14.6600 
  86   0.0000       0.539012        14.6673 
  87   0.0000       0.545963        14.8564 
  88   0.0000       0.564734        15.3672 
  89   0.0000       0.572018        15.5654 
  90   0.0000       0.591358        16.0917 
  91   0.0000       0.591883        16.1059 
  92   0.0000       0.592484        16.1223 
  93   0.0000       0.608605        16.5610 
  94   0.0000       0.611032        16.6270 
  95   0.0000       0.626852        17.0575 
  96   0.0000       0.630258        17.1502 
  97   0.0000       0.654511        17.8101 
  98   0.0000       0.662527        18.0283 
  99   0.0000       0.664527        18.0827 
 100   0.0000       0.664923        18.0935 
 101   0.0000       0.666778        18.1440 
 102   0.0000       0.670088        18.2340 
 103   0.0000       0.674678        18.3589 
 104   0.0000       0.687798        18.7159 
 105   0.0000       0.700417        19.0593 
 106   0.0000       0.710731        19.3400 
 107   0.0000       0.713344        19.4111 
 108   0.0000       0.722537        19.6612 
 109   0.0000       0.728247        19.8166 
 110   0.0000       0.744524        20.2595 
 111   0.0000       0.752283        20.4707 
 112   0.0000       0.761151        20.7120 
 113   0.0000       0.764899        20.8140 
 114   0.0000       0.775706        21.1080 
 115   0.0000       0.778934        21.1959 
 116   0.0000       0.780445        21.2370 
 117   0.0000       0.795162        21.6375 
 118   0.0000       0.799512        21.7558 
 119   0.0000       0.808299        21.9949 
 120   0.0000       0.814342        22.1594 
 121   0.0000       0.829944        22.5839 
 122   0.0000       0.834027        22.6950 
 123   0.0000       0.846955        23.0468 
 124   0.0000       0.847970        23.0744 
 125   0.0000       0.854686        23.2572 
 126   0.0000       0.862427        23.4678 
 127   0.0000       0.871286        23.7089 
 128   0.0000       0.885632        24.0993 
 129   0.0000       0.886602        24.1257 
 130   0.0000       0.888334        24.1728 
 131   0.0000       0.889372        24.2010 
 132   0.0000       0.891699        24.2644 
 133   0.0000       0.892020        24.2731 
 134   0.0000       0.912518        24.8309 
 135   0.0000       0.915962        24.9246 
 136   0.0000       0.923941        25.1417 
 137   0.0000       0.930304        25.3149 
 138   0.0000       0.938670        25.5425 
 139   0.0000       0.946079        25.7441 
 140   0.0000       0.976678        26.5768 
 141   0.0000       0.983865        26.7723 
 142   0.0000       0.985904        26.8278 
 143   0.0000       0.994200        27.0536 
 144   0.0000       0.997523        27.1440 
 145   0.0000       1.000813        27.2335 
 146   0.0000       1.003947        27.3188 
 147   0.0000       1.010515        27.4975 
 148   0.0000       1.023884        27.8613 
 149   0.0000       1.032209        28.0878 
 150   0.0000       1.042926        28.3795 
 151   0.0000       1.053354        28.6632 
 152   0.0000       1.098578        29.8938 
 153   0.0000       1.106051        30.0972 
 154   0.0000       1.157025        31.4843 
 155   0.0000       1.158652        31.5285 
 156   0.0000       1.163945        31.6726 
 157   0.0000       1.190971        32.4080 
 158   0.0000       1.203441        32.7473 
 159   0.0000       1.205803        32.8116 
 160   0.0000       1.206589        32.8329 
 161   0.0000       1.226521        33.3753 
 162   0.0000       1.237380        33.6708 
 163   0.0000       1.242524        33.8108 
 164   0.0000       1.264146        34.3992 
 165   0.0000       1.274017        34.6678 
 166   0.0000       1.289933        35.1009 
 167   0.0000       1.310633        35.6641 
 168   0.0000       1.320551        35.9340 
 169   0.0000       1.339969        36.4624 
 170   0.0000       1.372011        37.3343 
 171   0.0000       1.380354        37.5613 
 172   0.0000       1.388406        37.7804 
 173   0.0000       1.461190        39.7610 
 174   0.0000       1.484363        40.3916 
 175   0.0000       1.510776        41.1103 
 176   0.0000       1.534315        41.7508 
 177   0.0000       1.541783        41.9540 
 178   0.0000       1.547032        42.0969 
 179   0.0000       1.563787        42.5528 
 180   0.0000       1.597717        43.4761 
 181   0.0000       1.634534        44.4779 
 182   0.0000       1.644143        44.7394 
 183   0.0000       1.660343        45.1802 
 184   0.0000       1.669957        45.4418 
 185   0.0000       1.681545        45.7572 
 186   0.0000       1.711165        46.5632 
 187   0.0000       1.727918        47.0190 
 188   0.0000       1.760752        47.9125 
 189   0.0000       1.806957        49.1698 
 190   0.0000       1.836109        49.9631 
 191   0.0000       1.842485        50.1366 
 192   0.0000       1.854066        50.4517 
 193   0.0000       1.909318        51.9552 
 194   0.0000       1.935795        52.6757 
 195   0.0000       1.968375        53.5622 
 196   0.0000       2.003470        54.5172 
 197   0.0000       2.062705        56.1291 
 198   0.0000       2.066635        56.2360 
 199   0.0000       2.098907        57.1142 
 200   0.0000       2.116138        57.5831 
 201   0.0000       2.213785        60.2402 
 202   0.0000       2.217705        60.3468 
 203   0.0000       2.226747        60.5929 
 204   0.0000       2.318914        63.1008 
 205   0.0000       2.340876        63.6985 
 206   0.0000       2.357939        64.1628 
 207   0.0000       2.495484        67.9056 
 208   0.0000       2.538329        69.0715 
 209   0.0000       2.579134        70.1818 
 210   0.0000       2.635148        71.7060 
 211   0.0000       2.653982        72.2185 
 212   0.0000       2.691976        73.2524 
 213   0.0000       2.699703        73.4626 
 214   0.0000       2.824454        76.8573 
 215   0.0000       2.843896        77.3864 
 216   0.0000       2.849214        77.5310 
 217   0.0000       2.920047        79.4585 
 218   0.0000       2.948375        80.2294 
 219   0.0000       3.034754        82.5798 
 220   0.0000       3.054869        83.1272 
 221   0.0000       3.081641        83.8557 
 222   0.0000       3.166100        86.1539 
 223   0.0000       3.168485        86.2189 
 224   0.0000       3.183202        86.6193 
 225   0.0000       3.186498        86.7090 
 226   0.0000       3.271644        89.0260 
 227   0.0000       3.318094        90.2899 
 228   0.0000       3.356600        91.3377 
 229   0.0000       3.356684        91.3400 
 230   0.0000       3.407426        92.7208 
 231   0.0000       3.419329        93.0447 
 232   0.0000       3.480791        94.7171 
 233   0.0000       3.525113        95.9232 
 234   0.0000       3.551538        96.6423 
 235   0.0000       3.588542        97.6492 
 236   0.0000       3.624203        98.6196 
 237   0.0000       3.631118        98.8077 
 238   0.0000       3.679097       100.1133 
 239   0.0000       3.702168       100.7411 
 240   0.0000       3.705218       100.8241 
 241   0.0000       3.745596       101.9228 
 242   0.0000       3.787580       103.0653 
 243   0.0000       3.912311       106.4594 
 244   0.0000       3.918184       106.6192 
 245   0.0000       3.959280       107.7375 
 246   0.0000       4.063090       110.5623 
 247   0.0000       4.064924       110.6122 
 248   0.0000       4.071781       110.7988 
 249   0.0000       4.072863       110.8282 
 250   0.0000       4.155689       113.0820 
 251   0.0000       4.185832       113.9023 
 252   0.0000       4.244204       115.4907 
 253   0.0000       4.299311       116.9902 
 254   0.0000       4.394849       119.5899 
 255   0.0000       4.449306       121.0718 
 256   0.0000       4.479320       121.8885 
 257   0.0000       4.566756       124.2677 
 258   0.0000       4.592694       124.9736 
 259   0.0000       4.600889       125.1965 
 260   0.0000       4.735087       128.8483 
 261   0.0000       4.833416       131.5239 
 262   0.0000       4.870771       132.5404 
 263   0.0000       4.897499       133.2677 
 264   0.0000       4.971162       135.2722 
 265   0.0000       5.041691       137.1914 
 266   0.0000       5.048656       137.3809 
 267   0.0000       5.073132       138.0469 
 268   0.0000       5.248680       142.8238 
 269   0.0000       5.272373       143.4686 
 270   0.0000       5.329414       145.0207 
 271   0.0000       5.400053       146.9429 
 272   0.0000       5.422159       147.5444 
 273   0.0000       5.472079       148.9029 
 274   0.0000       5.652734       153.8187 
 275   0.0000       5.698663       155.0685 
 276   0.0000       5.815093       158.2367 
 277   0.0000       5.843805       159.0180 
 278   0.0000       5.937314       161.5625 
 279   0.0000       5.984857       162.8562 
 280   0.0000       6.111947       166.3145 
 281   0.0000       6.128775       166.7725 
 282   0.0000       6.217992       169.2002 
 283   0.0000       6.238280       169.7522 
 284   0.0000       6.280162       170.8919 
 285   0.0000       6.297211       171.3558 
 286   0.0000       6.369492       173.3227 
 287   0.0000       6.434679       175.0965 
 288   0.0000       6.505708       177.0293 
 289   0.0000       6.556740       178.4180 
 290   0.0000       6.648095       180.9039 
 291   0.0000       6.728739       183.0983 
 292   0.0000       6.752198       183.7366 
 293   0.0000       6.790691       184.7841 
 294   0.0000       6.944955       188.9818 
 295   0.0000       7.037513       191.5005 
 296   0.0000       7.058547       192.0728 
 297   0.0000       7.174211       195.2202 
 298   0.0000       7.228986       196.7107 
 299   0.0000       7.390900       201.1166 
 300   0.0000       7.451746       202.7723 
 301   0.0000       7.463035       203.0795 
 302   0.0000       7.694440       209.3764 
 303   0.0000       7.703335       209.6184 
 304   0.0000       7.812531       212.5898 
 305   0.0000       7.886662       214.6070 
 306   0.0000       8.024957       218.3702 
 307   0.0000       8.115039       220.8214 
 308   0.0000       8.320971       226.4251 
 309   0.0000       8.425309       229.2643 
 310   0.0000       8.460483       230.2215 
 311   0.0000       8.480557       230.7677 
 312   0.0000       8.642386       235.1713 
 313   0.0000       8.682723       236.2689 
 314   0.0000       8.885911       241.7979 
 315   0.0000       8.908719       242.4186 
 316   0.0000       8.928451       242.9555 
 317   0.0000       9.049802       246.2576 
 318   0.0000       9.225086       251.0273 
 319   0.0000       9.257635       251.9131 
 320   0.0000       9.283769       252.6242 
 321   0.0000       9.444226       256.9904 
 322   0.0000       9.455565       257.2990 
 323   0.0000       9.505143       258.6481 
 324   0.0000       9.677320       263.3333 
 325   0.0000       9.731807       264.8159 
 326   0.0000       9.778249       266.0797 
 327   0.0000      10.128974       275.6234 
 328   0.0000      10.196363       277.4571 
 329   0.0000      10.228866       278.3416 
 330   0.0000      10.302460       280.3442 
 331   0.0000      10.661962       290.1267 
 332   0.0000      10.807433       294.0852 
 333   0.0000      10.831513       294.7405 
 334   0.0000      10.951324       298.0007 
 335   0.0000      11.021281       299.9043 
 336   0.0000      11.051866       300.7366 
 337   0.0000      11.083685       301.6024 
 338   0.0000      11.170660       303.9691 
 339   0.0000      11.272805       306.7486 
 340   0.0000      11.358320       309.0756 
 341   0.0000      11.397010       310.1284 
 342   0.0000      11.403240       310.2979 
 343   0.0000      11.431972       311.0798 
 344   0.0000      11.446490       311.4748 
 345   0.0000      11.517522       313.4077 
 346   0.0000      11.561450       314.6030 
 347   0.0000      11.634414       316.5885 
 348   0.0000      11.679648       317.8194 
 349   0.0000      11.699102       318.3487 
 350   0.0000      11.845623       322.3358 
 351   0.0000      11.932495       324.6997 
 352   0.0000      12.052873       327.9754 
 353   0.0000      12.257433       333.5417 
 354   0.0000      12.258807       333.5791 
 355   0.0000      12.260740       333.6317 
 356   0.0000      12.326482       335.4206 
 357   0.0000      12.362287       336.3949 
 358   0.0000      12.442255       338.5710 
 359   0.0000      12.579189       342.2971 
 360   0.0000      12.586745       342.5027 
 361   0.0000      12.598409       342.8202 
 362   0.0000      12.727817       346.3415 
 363   0.0000      12.734398       346.5206 
 364   0.0000      12.838824       349.3622 
 365   0.0000      12.961382       352.6971 
 366   0.0000      13.024742       354.4213 
 367   0.0000      13.030280       354.5719 
 368   0.0000      13.412341       364.9684 
 369   0.0000      13.475559       366.6886 
 370   0.0000      13.520093       367.9004 
 371   0.0000      13.961398       379.9090 
 372   0.0000      14.042044       382.1034 
 373   0.0000      14.095688       383.5632 
 374   0.0000      14.389882       391.5686 
 375   0.0000      14.439248       392.9119 
 376   0.0000      14.449355       393.1869 
 377   0.0000      14.772312       401.9750 
 378   0.0000      14.860387       404.3717 
 379   0.0000      15.057172       409.7265 
 380   0.0000      15.072058       410.1316 
 381   0.0000      15.092787       410.6956 
 382   0.0000      15.138904       411.9505 
 383   0.0000      15.228855       414.3982 
 384   0.0000      15.235107       414.5683 
 385   0.0000      15.236772       414.6137 
 386   0.0000      15.303568       416.4313 
 387   0.0000      15.365429       418.1146 
 388   0.0000      15.472665       421.0326 
 389   0.0000      15.503036       421.8591 
 390   0.0000      15.512570       422.1185 
 391   0.0000      15.592454       424.2922 
 392   0.0000      15.709146       427.4676 
 393   0.0000      15.756673       428.7609 
 394   0.0000      15.968312       434.5198 
 395   0.0000      15.973011       434.6477 
 396   0.0000      16.175602       440.1605 
 397   0.0000      16.284023       443.1108 
 398   0.0000      16.343347       444.7251 
 399   0.0000      16.540343       450.0856 
 400   0.0000      16.698134       454.3793 
 401   0.0000      16.708173       454.6525 
 402   0.0000      16.722837       455.0515 
 403   0.0000      16.737388       455.4475 
 404   0.0000      16.749867       455.7871 
 405   0.0000      17.007779       462.8052 
 406   0.0000      17.181358       467.5285 
 407   0.0000      17.182626       467.5630 
 408   0.0000      17.192189       467.8232 
 409   0.0000      17.196971       467.9534 
 410   0.0000      17.327069       471.4935 
 411   0.0000      17.487443       475.8575 
 412   0.0000      17.568879       478.0735 
 413   0.0000      17.651304       480.3164 
 414   0.0000      17.664237       480.6683 
 415   0.0000      17.810851       484.6579 
 416   0.0000      17.882640       486.6114 
 417   0.0000      18.014010       490.1861 
 418   0.0000      18.058801       491.4050 
 419   0.0000      18.389242       500.3967 
 420   0.0000      18.624146       506.7888 
 421   0.0000      18.903185       514.3818 
 422   0.0000      18.920454       514.8517 
 423   0.0000      19.228706       523.2397 
 424   0.0000      19.642186       534.4911 
 425   0.0000      20.254017       551.1398 
 426   0.0000      20.357553       553.9572 
 427   0.0000      20.501962       557.8868 
 428   0.0000      20.569014       559.7113 
 429   0.0000      21.045717       572.6831 
 430   0.0000      21.109274       574.4125 
 431   0.0000      21.921672       596.5190 
 432   0.0000      23.352874       635.4640 
 433   0.0000      23.380834       636.2248 
 434   0.0000      23.496235       639.3651 
 435   0.0000      23.597831       642.1296 
 436   0.0000      23.776071       646.9798 
 437   0.0000      25.033436       681.1944 
 438   0.0000      25.575169       695.9357 
 439   0.0000      25.968252       706.6321 
 440   0.0000      26.010235       707.7745 
 441   0.0000      26.344059       716.8583 
 442   0.0000      27.405117       745.7311 
 443   0.0000      27.989620       761.6363 
 444   0.0000      28.516363       775.9697 
 445   0.0000      28.584547       777.8251 
 446   0.0000      41.058926      1117.2702 
 447   0.0000      41.597971      1131.9383 
 448   0.0000      47.757455      1299.5464 
 449   0.0000      47.887171      1303.0762 
 450   0.0000      47.910792      1303.7189 
 451   0.0000      47.937289      1304.4399 
 452   0.0000      48.110749      1309.1600 
 453   0.0000      48.214166      1311.9742 
 454   0.0000      48.454738      1318.5205 
 455   0.0000      48.735227      1326.1529 
 456   0.0000      49.046898      1334.6339 
 457   0.0000      49.269106      1340.6805 
 458   0.0000      90.938806      2474.5707 
 459   0.0000      91.015654      2476.6619 
 460   0.0000      91.080042      2478.4139 
 461   0.0000      91.176905      2481.0497 
 462   0.0000      92.614075      2520.1571 
 463   0.0000      92.841731      2526.3519 
 464   0.0000     104.082199      2832.2206 
 465   0.0000     108.325814      2947.6953 

                 SPIN DOWN ORBITALS
  NO   OCC          E(Eh)            E(eV) 
   0   1.0000     -14.049921      -382.3178 
   1   1.0000     -14.049658      -382.3106 
   2   1.0000      -0.954470       -25.9724 
   3   1.0000      -0.628061       -17.0904 
   4   1.0000      -0.518150       -14.0996 
   5   1.0000      -0.367983       -10.0133 
   6   1.0000      -0.337024        -9.1709 
   7   1.0000      -0.215482        -5.8635 
   8   0.0000      -0.115509        -3.1432 
   9   0.0000      -0.037830        -1.0294 
  10   0.0000       0.003266         0.0889 
  11   0.0000       0.020097         0.5469 
  12   0.0000       0.022374         0.6088 
  13   0.0000       0.035317         0.9610 
  14   0.0000       0.040983         1.1152 
  15   0.0000       0.044857         1.2206 
  16   0.0000       0.049391         1.3440 
  17   0.0000       0.052362         1.4248 
  18   0.0000       0.066188         1.8011 
  19   0.0000       0.072996         1.9863 
  20   0.0000       0.092984         2.5302 
  21   0.0000       0.103701         2.8218 
  22   0.0000       0.107478         2.9246 
  23   0.0000       0.108631         2.9560 
  24   0.0000       0.113395         3.0856 
  25   0.0000       0.124314         3.3828 
  26   0.0000       0.129671         3.5285 
  27   0.0000       0.134058         3.6479 
  28   0.0000       0.136427         3.7124 
  29   0.0000       0.148938         4.0528 
  30   0.0000       0.155186         4.2228 
  31   0.0000       0.163202         4.4410 
  32   0.0000       0.172004         4.6805 
  33   0.0000       0.184571         5.0224 
  34   0.0000       0.186022         5.0619 
  35   0.0000       0.187867         5.1121 
  36   0.0000       0.208377         5.6702 
  37   0.0000       0.209629         5.7043 
  38   0.0000       0.215422         5.8619 
  39   0.0000       0.218095         5.9347 
  40   0.0000       0.225191         6.1278 
  41   0.0000       0.228915         6.2291 
  42   0.0000       0.229172         6.2361 
  43   0.0000       0.231360         6.2956 
  44   0.0000       0.241480         6.5710 
  45   0.0000       0.245748         6.6871 
  46   0.0000       0.251879         6.8540 
  47   0.0000       0.259696         7.0667 
  48   0.0000       0.270462         7.3596 
  49   0.0000       0.286442         7.7945 
  50   0.0000       0.296760         8.0753 
  51   0.0000       0.302543         8.2326 
  52   0.0000       0.325982         8.8704 
  53   0.0000       0.332182         9.0391 
  54   0.0000       0.332340         9.0434 
  55   0.0000       0.335857         9.1391 
  56   0.0000       0.341172         9.2838 
  57   0.0000       0.351977         9.5778 
  58   0.0000       0.369116        10.0442 
  59   0.0000       0.369987        10.0679 
  60   0.0000       0.370960        10.0943 
  61   0.0000       0.378508        10.2997 
  62   0.0000       0.379658        10.3310 
  63   0.0000       0.390400        10.6233 
  64   0.0000       0.393622        10.7110 
  65   0.0000       0.400050        10.8859 
  66   0.0000       0.407848        11.0981 
  67   0.0000       0.411007        11.1841 
  68   0.0000       0.420584        11.4447 
  69   0.0000       0.427765        11.6401 
  70   0.0000       0.430932        11.7263 
  71   0.0000       0.439285        11.9535 
  72   0.0000       0.458498        12.4764 
  73   0.0000       0.459883        12.5141 
  74   0.0000       0.463144        12.6028 
  75   0.0000       0.469469        12.7749 
  76   0.0000       0.470128        12.7928 
  77   0.0000       0.472575        12.8594 
  78   0.0000       0.484031        13.1712 
  79   0.0000       0.485613        13.2142 
  80   0.0000       0.491013        13.3612 
  81   0.0000       0.496066        13.4987 
  82   0.0000       0.503030        13.6881 
  83   0.0000       0.525545        14.3008 
  84   0.0000       0.529781        14.4161 
  85   0.0000       0.538745        14.6600 
  86   0.0000       0.539012        14.6673 
  87   0.0000       0.545963        14.8564 
  88   0.0000       0.564734        15.3672 
  89   0.0000       0.572018        15.5654 
  90   0.0000       0.591358        16.0917 
  91   0.0000       0.591883        16.1059 
  92   0.0000       0.592484        16.1223 
  93   0.0000       0.608605        16.5610 
  94   0.0000       0.611032        16.6270 
  95   0.0000       0.626852        17.0575 
  96   0.0000       0.630258        17.1502 
  97   0.0000       0.654511        17.8101 
  98   0.0000       0.662527        18.0283 
  99   0.0000       0.664527        18.0827 
 100   0.0000       0.664923        18.0935 
 101   0.0000       0.666778        18.1440 
 102   0.0000       0.670088        18.2340 
 103   0.0000       0.674678        18.3589 
 104   0.0000       0.687798        18.7159 
 105   0.0000       0.700417        19.0593 
 106   0.0000       0.710731        19.3400 
 107   0.0000       0.713344        19.4111 
 108   0.0000       0.722537        19.6612 
 109   0.0000       0.728247        19.8166 
 110   0.0000       0.744524        20.2595 
 111   0.0000       0.752283        20.4707 
 112   0.0000       0.761151        20.7120 
 113   0.0000       0.764899        20.8140 
 114   0.0000       0.775706        21.1080 
 115   0.0000       0.778934        21.1959 
 116   0.0000       0.780445        21.2370 
 117   0.0000       0.795162        21.6375 
 118   0.0000       0.799512        21.7558 
 119   0.0000       0.808299        21.9949 
 120   0.0000       0.814342        22.1594 
 121   0.0000       0.829944        22.5839 
 122   0.0000       0.834027        22.6950 
 123   0.0000       0.846955        23.0468 
 124   0.0000       0.847970        23.0744 
 125   0.0000       0.854686        23.2572 
 126   0.0000       0.862427        23.4678 
 127   0.0000       0.871286        23.7089 
 128   0.0000       0.885632        24.0993 
 129   0.0000       0.886602        24.1257 
 130   0.0000       0.888334        24.1728 
 131   0.0000       0.889372        24.2010 
 132   0.0000       0.891699        24.2644 
 133   0.0000       0.892020        24.2731 
 134   0.0000       0.912518        24.8309 
 135   0.0000       0.915962        24.9246 
 136   0.0000       0.923941        25.1417 
 137   0.0000       0.930304        25.3149 
 138   0.0000       0.938670        25.5425 
 139   0.0000       0.946079        25.7441 
 140   0.0000       0.976678        26.5768 
 141   0.0000       0.983865        26.7723 
 142   0.0000       0.985904        26.8278 
 143   0.0000       0.994200        27.0536 
 144   0.0000       0.997523        27.1440 
 145   0.0000       1.000813        27.2335 
 146   0.0000       1.003947        27.3188 
 147   0.0000       1.010515        27.4975 
 148   0.0000       1.023884        27.8613 
 149   0.0000       1.032209        28.0878 
 150   0.0000       1.042926        28.3795 
 151   0.0000       1.053354        28.6632 
 152   0.0000       1.098578        29.8938 
 153   0.0000       1.106051        30.0972 
 154   0.0000       1.157025        31.4843 
 155   0.0000       1.158652        31.5285 
 156   0.0000       1.163945        31.6726 
 157   0.0000       1.190971        32.4080 
 158   0.0000       1.203441        32.7473 
 159   0.0000       1.205803        32.8116 
 160   0.0000       1.206589        32.8329 
 161   0.0000       1.226521        33.3753 
 162   0.0000       1.237380        33.6708 
 163   0.0000       1.242524        33.8108 
 164   0.0000       1.264146        34.3992 
 165   0.0000       1.274017        34.6678 
 166   0.0000       1.289933        35.1009 
 167   0.0000       1.310633        35.6641 
 168   0.0000       1.320551        35.9340 
 169   0.0000       1.339969        36.4624 
 170   0.0000       1.372011        37.3343 
 171   0.0000       1.380354        37.5613 
 172   0.0000       1.388406        37.7804 
 173   0.0000       1.461190        39.7610 
 174   0.0000       1.484363        40.3916 
 175   0.0000       1.510776        41.1103 
 176   0.0000       1.534315        41.7508 
 177   0.0000       1.541783        41.9540 
 178   0.0000       1.547032        42.0969 
 179   0.0000       1.563787        42.5528 
 180   0.0000       1.597717        43.4761 
 181   0.0000       1.634534        44.4779 
 182   0.0000       1.644143        44.7394 
 183   0.0000       1.660343        45.1802 
 184   0.0000       1.669957        45.4418 
 185   0.0000       1.681545        45.7572 
 186   0.0000       1.711165        46.5632 
 187   0.0000       1.727918        47.0190 
 188   0.0000       1.760752        47.9125 
 189   0.0000       1.806957        49.1698 
 190   0.0000       1.836109        49.9631 
 191   0.0000       1.842485        50.1366 
 192   0.0000       1.854066        50.4517 
 193   0.0000       1.909318        51.9552 
 194   0.0000       1.935795        52.6757 
 195   0.0000       1.968375        53.5622 
 196   0.0000       2.003470        54.5172 
 197   0.0000       2.062705        56.1291 
 198   0.0000       2.066635        56.2360 
 199   0.0000       2.098907        57.1142 
 200   0.0000       2.116138        57.5831 
 201   0.0000       2.213785        60.2402 
 202   0.0000       2.217705        60.3468 
 203   0.0000       2.226747        60.5929 
 204   0.0000       2.318914        63.1008 
 205   0.0000       2.340876        63.6985 
 206   0.0000       2.357939        64.1628 
 207   0.0000       2.495484        67.9056 
 208   0.0000       2.538329        69.0715 
 209   0.0000       2.579134        70.1818 
 210   0.0000       2.635148        71.7060 
 211   0.0000       2.653982        72.2185 
 212   0.0000       2.691976        73.2524 
 213   0.0000       2.699703        73.4626 
 214   0.0000       2.824454        76.8573 
 215   0.0000       2.843896        77.3864 
 216   0.0000       2.849214        77.5310 
 217   0.0000       2.920047        79.4585 
 218   0.0000       2.948375        80.2294 
 219   0.0000       3.034754        82.5798 
 220   0.0000       3.054869        83.1272 
 221   0.0000       3.081641        83.8557 
 222   0.0000       3.166100        86.1539 
 223   0.0000       3.168485        86.2189 
 224   0.0000       3.183202        86.6193 
 225   0.0000       3.186498        86.7090 
 226   0.0000       3.271644        89.0260 
 227   0.0000       3.318094        90.2899 
 228   0.0000       3.356600        91.3377 
 229   0.0000       3.356684        91.3400 
 230   0.0000       3.407426        92.7208 
 231   0.0000       3.419329        93.0447 
 232   0.0000       3.480791        94.7171 
 233   0.0000       3.525113        95.9232 
 234   0.0000       3.551538        96.6423 
 235   0.0000       3.588542        97.6492 
 236   0.0000       3.624203        98.6196 
 237   0.0000       3.631118        98.8077 
 238   0.0000       3.679097       100.1133 
 239   0.0000       3.702168       100.7411 
 240   0.0000       3.705218       100.8241 
 241   0.0000       3.745596       101.9228 
 242   0.0000       3.787580       103.0653 
 243   0.0000       3.912311       106.4594 
 244   0.0000       3.918184       106.6192 
 245   0.0000       3.959280       107.7375 
 246   0.0000       4.063090       110.5623 
 247   0.0000       4.064924       110.6122 
 248   0.0000       4.071781       110.7988 
 249   0.0000       4.072863       110.8282 
 250   0.0000       4.155689       113.0820 
 251   0.0000       4.185832       113.9023 
 252   0.0000       4.244204       115.4907 
 253   0.0000       4.299311       116.9902 
 254   0.0000       4.394849       119.5899 
 255   0.0000       4.449306       121.0718 
 256   0.0000       4.479320       121.8885 
 257   0.0000       4.566756       124.2677 
 258   0.0000       4.592694       124.9736 
 259   0.0000       4.600889       125.1965 
 260   0.0000       4.735087       128.8483 
 261   0.0000       4.833416       131.5239 
 262   0.0000       4.870771       132.5404 
 263   0.0000       4.897499       133.2677 
 264   0.0000       4.971162       135.2722 
 265   0.0000       5.041691       137.1914 
 266   0.0000       5.048656       137.3809 
 267   0.0000       5.073132       138.0469 
 268   0.0000       5.248680       142.8238 
 269   0.0000       5.272373       143.4686 
 270   0.0000       5.329414       145.0207 
 271   0.0000       5.400053       146.9429 
 272   0.0000       5.422159       147.5444 
 273   0.0000       5.472079       148.9029 
 274   0.0000       5.652734       153.8187 
 275   0.0000       5.698663       155.0685 
 276   0.0000       5.815093       158.2367 
 277   0.0000       5.843805       159.0180 
 278   0.0000       5.937314       161.5625 
 279   0.0000       5.984857       162.8562 
 280   0.0000       6.111947       166.3145 
 281   0.0000       6.128775       166.7725 
 282   0.0000       6.217992       169.2002 
 283   0.0000       6.238280       169.7522 
 284   0.0000       6.280162       170.8919 
 285   0.0000       6.297211       171.3558 
 286   0.0000       6.369492       173.3227 
 287   0.0000       6.434679       175.0965 
 288   0.0000       6.505708       177.0293 
 289   0.0000       6.556740       178.4180 
 290   0.0000       6.648095       180.9039 
 291   0.0000       6.728739       183.0983 
 292   0.0000       6.752198       183.7366 
 293   0.0000       6.790691       184.7841 
 294   0.0000       6.944955       188.9818 
 295   0.0000       7.037513       191.5005 
 296   0.0000       7.058547       192.0728 
 297   0.0000       7.174211       195.2202 
 298   0.0000       7.228986       196.7107 
 299   0.0000       7.390900       201.1166 
 300   0.0000       7.451746       202.7723 
 301   0.0000       7.463035       203.0795 
 302   0.0000       7.694440       209.3764 
 303   0.0000       7.703335       209.6184 
 304   0.0000       7.812531       212.5898 
 305   0.0000       7.886662       214.6070 
 306   0.0000       8.024957       218.3702 
 307   0.0000       8.115039       220.8214 
 308   0.0000       8.320971       226.4251 
 309   0.0000       8.425309       229.2643 
 310   0.0000       8.460483       230.2215 
 311   0.0000       8.480557       230.7677 
 312   0.0000       8.642386       235.1713 
 313   0.0000       8.682723       236.2689 
 314   0.0000       8.885911       241.7979 
 315   0.0000       8.908719       242.4186 
 316   0.0000       8.928451       242.9555 
 317   0.0000       9.049802       246.2576 
 318   0.0000       9.225086       251.0273 
 319   0.0000       9.257635       251.9131 
 320   0.0000       9.283769       252.6242 
 321   0.0000       9.444226       256.9904 
 322   0.0000       9.455565       257.2990 
 323   0.0000       9.505143       258.6481 
 324   0.0000       9.677320       263.3333 
 325   0.0000       9.731807       264.8159 
 326   0.0000       9.778249       266.0797 
 327   0.0000      10.128974       275.6234 
 328   0.0000      10.196363       277.4571 
 329   0.0000      10.228866       278.3416 
 330   0.0000      10.302460       280.3442 
 331   0.0000      10.661962       290.1267 
 332   0.0000      10.807433       294.0852 
 333   0.0000      10.831513       294.7405 
 334   0.0000      10.951324       298.0007 
 335   0.0000      11.021281       299.9043 
 336   0.0000      11.051866       300.7366 
 337   0.0000      11.083685       301.6024 
 338   0.0000      11.170660       303.9691 
 339   0.0000      11.272805       306.7486 
 340   0.0000      11.358320       309.0756 
 341   0.0000      11.397010       310.1284 
 342   0.0000      11.403240       310.2979 
 343   0.0000      11.431972       311.0798 
 344   0.0000      11.446490       311.4748 
 345   0.0000      11.517522       313.4077 
 346   0.0000      11.561450       314.6030 
 347   0.0000      11.634414       316.5885 
 348   0.0000      11.679648       317.8194 
 349   0.0000      11.699102       318.3487 
 350   0.0000      11.845623       322.3358 
 351   0.0000      11.932495       324.6997 
 352   0.0000      12.052873       327.9754 
 353   0.0000      12.257433       333.5417 
 354   0.0000      12.258807       333.5791 
 355   0.0000      12.260740       333.6317 
 356   0.0000      12.326482       335.4206 
 357   0.0000      12.362287       336.3949 
 358   0.0000      12.442255       338.5710 
 359   0.0000      12.579189       342.2971 
 360   0.0000      12.586745       342.5027 
 361   0.0000      12.598409       342.8202 
 362   0.0000      12.727817       346.3415 
 363   0.0000      12.734398       346.5206 
 364   0.0000      12.838824       349.3622 
 365   0.0000      12.961382       352.6971 
 366   0.0000      13.024742       354.4213 
 367   0.0000      13.030280       354.5719 
 368   0.0000      13.412341       364.9684 
 369   0.0000      13.475559       366.6886 
 370   0.0000      13.520093       367.9004 
 371   0.0000      13.961398       379.9090 
 372   0.0000      14.042044       382.1034 
 373   0.0000      14.095688       383.5632 
 374   0.0000      14.389882       391.5686 
 375   0.0000      14.439248       392.9119 
 376   0.0000      14.449355       393.1869 
 377   0.0000      14.772312       401.9750 
 378   0.0000      14.860387       404.3717 
 379   0.0000      15.057172       409.7265 
 380   0.0000      15.072058       410.1316 
 381   0.0000      15.092787       410.6956 
 382   0.0000      15.138904       411.9505 
 383   0.0000      15.228855       414.3982 
 384   0.0000      15.235107       414.5683 
 385   0.0000      15.236772       414.6137 
 386   0.0000      15.303568       416.4313 
 387   0.0000      15.365429       418.1146 
 388   0.0000      15.472665       421.0326 
 389   0.0000      15.503036       421.8591 
 390   0.0000      15.512570       422.1185 
 391   0.0000      15.592454       424.2922 
 392   0.0000      15.709146       427.4676 
 393   0.0000      15.756673       428.7609 
 394   0.0000      15.968312       434.5198 
 395   0.0000      15.973011       434.6477 
 396   0.0000      16.175602       440.1605 
 397   0.0000      16.284023       443.1108 
 398   0.0000      16.343347       444.7251 
 399   0.0000      16.540343       450.0856 
 400   0.0000      16.698134       454.3793 
 401   0.0000      16.708173       454.6525 
 402   0.0000      16.722837       455.0515 
 403   0.0000      16.737388       455.4475 
 404   0.0000      16.749867       455.7871 
 405   0.0000      17.007779       462.8052 
 406   0.0000      17.181358       467.5285 
 407   0.0000      17.182626       467.5630 
 408   0.0000      17.192189       467.8232 
 409   0.0000      17.196971       467.9534 
 410   0.0000      17.327069       471.4935 
 411   0.0000      17.487443       475.8575 
 412   0.0000      17.568879       478.0735 
 413   0.0000      17.651304       480.3164 
 414   0.0000      17.664237       480.6683 
 415   0.0000      17.810851       484.6579 
 416   0.0000      17.882640       486.6114 
 417   0.0000      18.014010       490.1861 
 418   0.0000      18.058801       491.4050 
 419   0.0000      18.389242       500.3967 
 420   0.0000      18.624146       506.7888 
 421   0.0000      18.903185       514.3818 
 422   0.0000      18.920454       514.8517 
 423   0.0000      19.228706       523.2397 
 424   0.0000      19.642186       534.4911 
 425   0.0000      20.254017       551.1398 
 426   0.0000      20.357553       553.9572 
 427   0.0000      20.501962       557.8868 
 428   0.0000      20.569014       559.7113 
 429   0.0000      21.045717       572.6831 
 430   0.0000      21.109274       574.4125 
 431   0.0000      21.921672       596.5190 
 432   0.0000      23.352874       635.4640 
 433   0.0000      23.380834       636.2248 
 434   0.0000      23.496235       639.3651 
 435   0.0000      23.597831       642.1296 
 436   0.0000      23.776071       646.9798 
 437   0.0000      25.033436       681.1944 
 438   0.0000      25.575169       695.9357 
 439   0.0000      25.968252       706.6321 
 440   0.0000      26.010235       707.7745 
 441   0.0000      26.344059       716.8583 
 442   0.0000      27.405117       745.7311 
 443   0.0000      27.989620       761.6363 
 444   0.0000      28.516363       775.9697 
 445   0.0000      28.584547       777.8251 
 446   0.0000      41.058926      1117.2702 
 447   0.0000      41.597971      1131.9383 
 448   0.0000      47.757455      1299.5464 
 449   0.0000      47.887171      1303.0762 
 450   0.0000      47.910792      1303.7189 
 451   0.0000      47.937289      1304.4399 
 452   0.0000      48.110749      1309.1600 
 453   0.0000      48.214166      1311.9742 
 454   0.0000      48.454738      1318.5205 
 455   0.0000      48.735227      1326.1529 
 456   0.0000      49.046898      1334.6339 
 457   0.0000      49.269106      1340.6805 
 458   0.0000      90.938806      2474.5707 
 459   0.0000      91.015654      2476.6619 
 460   0.0000      91.080042      2478.4139 
 461   0.0000      91.176905      2481.0497 
 462   0.0000      92.614075      2520.1571 
 463   0.0000      92.841731      2526.3519 
 464   0.0000     104.082199      2832.2206 
 465   0.0000     108.325814      2947.6953 

                    ********************************
                    * MULLIKEN POPULATION ANALYSIS *
                    ********************************

--------------------------------------------
MULLIKEN ATOMIC CHARGES AND SPIN POPULATIONS
--------------------------------------------
   0 N :   -0.102049    0.000000
   1 H :    0.101905    0.000000
   2 N :   -0.101851   -0.000000
   3 H :    0.101996   -0.000000
Sum of atomic charges         :    0.0000000
Sum of atomic spin populations:    0.0000000

-----------------------------------------------------
MULLIKEN REDUCED ORBITAL CHARGES AND SPIN POPULATIONS
-----------------------------------------------------
CHARGE
  0 N s       :     3.716005  s :     3.716005
      pz      :     1.163319  p :     3.328153
      px      :     1.217242
      py      :     0.947591
      dz2     :     0.014971  d :     0.050737
      dxz     :     0.005816
      dyz     :    -0.001365
      dx2y2   :     0.008570
      dxy     :     0.022745
      f0      :     0.000489  f :     0.006463
      f+1     :     0.001248
      f-1     :    -0.000009
      f+2     :     0.001821
      f-2     :     0.000918
      f+3     :     0.000364
      f-3     :     0.001632
      g0      :     0.000090  g :     0.000631
      g+1     :     0.000066
      g-1     :     0.000008
      g+2     :    -0.000132
      g-2     :    -0.000032
      g+3     :     0.000336
      g-3     :     0.000254
      g+4     :     0.000092
      g-4     :    -0.000051
      h0      :     0.000003  h :     0.000060
      h+1     :     0.000006
      h-1     :     0.000001
      h+2     :     0.000007
      h-2     :     0.000000
      h+3     :    -0.000009
      h-3     :    -0.000000
      h+4     :     0.000064
      h-4     :     0.000016
      h+5     :     0.000013
      h-5     :    -0.000042
  1 H s       :     0.815913  s :     0.815913
      pz      :     0.035212  p :     0.073840
      px      :     0.016020
      py      :     0.022607
      dz2     :     0.002419  d :     0.007601
      dxz     :    -0.000145
      dyz     :     0.004919
      dx2y2   :     0.000578
      dxy     :    -0.000170
      f0      :     0.000631  f :     0.000820
      f+1     :    -0.000658
      f-1     :     0.001509
      f+2     :    -0.000291
      f-2     :    -0.000286
      f+3     :     0.000233
      f-3     :    -0.000317
      g0      :     0.000068  g :    -0.000079
      g+1     :    -0.000017
      g-1     :     0.000210
      g+2     :    -0.000214
      g-2     :     0.000033
      g+3     :     0.000014
      g-3     :    -0.000110
      g+4     :    -0.000000
      g-4     :    -0.000062
  2 N s       :     3.715886  s :     3.715886
      pz      :     1.442582  p :     3.328106
      px      :     0.937931
      py      :     0.947593
      dz2     :     0.005672  d :     0.050707
      dxz     :     0.015609
      dyz     :     0.009892
      dx2y2   :     0.008047
      dxy     :     0.011488
      f0      :    -0.000544  f :     0.006460
      f+1     :     0.002124
      f-1     :     0.000004
      f+2     :     0.000353
      f-2     :     0.000566
      f+3     :     0.001986
      f-3     :     0.001971
      g0      :    -0.000131  g :     0.000631
      g+1     :     0.000047
      g-1     :     0.000009
      g+2     :    -0.000035
      g-2     :    -0.000022
      g+3     :     0.000221
      g-3     :    -0.000111
      g+4     :     0.000351
      g-4     :     0.000303
      h0      :    -0.000033  h :     0.000060
      h+1     :     0.000009
      h-1     :    -0.000002
      h+2     :    -0.000017
      h-2     :     0.000004
      h+3     :     0.000059
      h-3     :    -0.000017
      h+4     :     0.000016
      h-4     :    -0.000019
      h+5     :     0.000052
      h-5     :     0.000008
  3 H s       :     0.815858  s :     0.815858
      pz      :     0.028360  p :     0.073807
      px      :     0.022838
      py      :     0.022609
      dz2     :    -0.000290  d :     0.007598
      dxz     :     0.000242
      dyz     :     0.001823
      dx2y2   :     0.002896
      dxy     :     0.002927
      f0      :     0.000078  f :     0.000821
      f+1     :    -0.000335
      f-1     :    -0.000005
      f+2     :    -0.000273
      f-2     :     0.001026
      f+3     :     0.000445
      f-3     :    -0.000115
      g0      :    -0.000046  g :    -0.000079
      g+1     :     0.000034
      g-1     :     0.000002
      g+2     :    -0.000073
      g-2     :    -0.000015
      g+3     :    -0.000121
      g-3     :     0.000215
      g+4     :     0.000057
      g-4     :    -0.000131

SPIN
  0 N s       :     0.000000  s :     0.000000
      pz      :    -0.000000  p :    -0.000000
      px      :     0.000000
      py      :    -0.000000
      dz2     :     0.000000  d :    -0.000000
      dxz     :    -0.000000
      dyz     :     0.000000
      dx2y2   :     0.000000
      dxy     :    -0.000000
      f0      :    -0.000000  f :    -0.000000
      f+1     :     0.000000
      f-1     :    -0.000000
      f+2     :    -0.000000
      f-2     :     0.000000
      f+3     :     0.000000
      f-3     :    -0.000000
      g0      :     0.000000  g :     0.000000
      g+1     :    -0.000000
      g-1     :     0.000000
      g+2     :     0.000000
      g-2     :     0.000000
      g+3     :     0.000000
      g-3     :     0.000000
      g+4     :     0.000000
      g-4     :     0.000000
      h0      :    -0.000000  h :     0.000000
      h+1     :     0.000000
      h-1     :    -0.000000
      h+2     :    -0.000000
      h-2     :     0.000000
      h+3     :     0.000000
      h-3     :     0.000000
      h+4     :     0.000000
      h-4     :     0.000000
      h+5     :     0.000000
      h-5     :     0.000000
  1 H s       :     0.000000  s :     0.000000
      pz      :     0.000000  p :     0.000000
      px      :     0.000000
      py      :     0.000000
      dz2     :     0.000000  d :    -0.000000
      dxz     :    -0.000000
      dyz     :     0.000000
      dx2y2   :    -0.000000
      dxy     :    -0.000000
      f0      :     0.000000  f :    -0.000000
      f+1     :    -0.000000
      f-1     :    -0.000000
      f+2     :     0.000000
      f-2     :    -0.000000
      f+3     :    -0.000000
      f-3     :    -0.000000
      g0      :    -0.000000  g :    -0.000000
      g+1     :    -0.000000
      g-1     :    -0.000000
      g+2     :     0.000000
      g-2     :    -0.000000
      g+3     :    -0.000000
      g-3     :    -0.000000
      g+4     :     0.000000
      g-4     :    -0.000000
  2 N s       :    -0.000000  s :    -0.000000
      pz      :     0.000000  p :    -0.000000
      px      :    -0.000000
      py      :     0.000000
      dz2     :    -0.000000  d :    -0.000000
      dxz     :     0.000000
      dyz     :     0.000000
      dx2y2   :    -0.000000
      dxy     :     0.000000
      f0      :    -0.000000  f :    -0.000000
      f+1     :    -0.000000
      f-1     :    -0.000000
      f+2     :    -0.000000
      f-2     :     0.000000
      f+3     :    -0.000000
      f-3     :    -0.000000
      g0      :    -0.000000  g :    -0.000000
      g+1     :    -0.000000
      g-1     :    -0.000000
      g+2     :     0.000000
      g-2     :     0.000000
      g+3     :     0.000000
      g-3     :    -0.000000
      g+4     :     0.000000
      g-4     :     0.000000
      h0      :    -0.000000  h :     0.000000
      h+1     :    -0.000000
      h-1     :     0.000000
      h+2     :     0.000000
      h-2     :    -0.000000
      h+3     :     0.000000
      h-3     :    -0.000000
      h+4     :     0.000000
      h-4     :    -0.000000
      h+5     :    -0.000000
      h-5     :     0.000000
  3 H s       :    -0.000000  s :    -0.000000
      pz      :     0.000000  p :    -0.000000
      px      :    -0.000000
      py      :    -0.000000
      dz2     :    -0.000000  d :    -0.000000
      dxz     :    -0.000000
      dyz     :    -0.000000
      dx2y2   :     0.000000
      dxy     :    -0.000000
      f0      :    -0.000000  f :    -0.000000
      f+1     :     0.000000
      f-1     :     0.000000
      f+2     :    -0.000000
      f-2     :    -0.000000
      f+3     :     0.000000
      f-3     :     0.000000
      g0      :     0.000000  g :     0.000000
      g+1     :    -0.000000
      g-1     :     0.000000
      g+2     :     0.000000
      g-2     :     0.000000
      g+3     :    -0.000000
      g-3     :    -0.000000
      g+4     :     0.000000
      g-4     :     0.000000


                     *******************************
                     * LOEWDIN POPULATION ANALYSIS *
                     *******************************

-------------------------------------------
LOEWDIN ATOMIC CHARGES AND SPIN POPULATIONS
-------------------------------------------
   0 N :    0.637893    0.000000
   1 H :   -0.637891    0.000000
   2 N :    0.637890   -0.000000
   3 H :   -0.637892   -0.000000

----------------------------------------------------
LOEWDIN REDUCED ORBITAL CHARGES AND SPIN POPULATIONS
----------------------------------------------------
CHARGE
  0 N s       :     2.836796  s :     2.836796
      pz      :     1.027071  p :     2.841152
      px      :     1.113285
      py      :     0.700797
      dz2     :     0.121765  d :     0.459545
      dxz     :     0.174818
      dyz     :     0.007605
      dx2y2   :     0.103181
      dxy     :     0.052176
      f0      :     0.028452  f :     0.165016
      f+1     :     0.043139
      f-1     :     0.000859
      f+2     :     0.039015
      f-2     :     0.007254
      f+3     :     0.028254
      f-3     :     0.018042
      g0      :     0.005573  g :     0.045877
      g+1     :     0.004079
      g-1     :     0.000403
      g+2     :     0.011547
      g-2     :     0.000010
      g+3     :     0.008352
      g-3     :     0.002668
      g+4     :     0.009059
      g-4     :     0.004185
      h0      :     0.000121  h :     0.013721
      h+1     :     0.002482
      h-1     :     0.000041
      h+2     :     0.000717
      h-2     :     0.000048
      h+3     :     0.002601
      h-3     :     0.000053
      h+4     :     0.002128
      h-4     :     0.000929
      h+5     :     0.003410
      h-5     :     0.001192
  1 H s       :     0.653173  s :     0.653173
      pz      :     0.239273  p :     0.425660
      px      :     0.107954
      py      :     0.078432
      dz2     :     0.108334  d :     0.344343
      dxz     :     0.132754
      dyz     :     0.078399
      dx2y2   :     0.019323
      dxy     :     0.005534
      f0      :     0.027630  f :     0.146049
      f+1     :     0.064002
      f-1     :     0.022704
      f+2     :     0.016295
      f-2     :     0.006502
      f+3     :     0.007455
      f-3     :     0.001461
      g0      :     0.007393  g :     0.068666
      g+1     :     0.027417
      g-1     :     0.003169
      g+2     :     0.012835
      g-2     :     0.004262
      g+3     :     0.007919
      g-3     :     0.002891
      g+4     :     0.002395
      g-4     :     0.000385
  2 N s       :     2.836796  s :     2.836796
      pz      :     1.144682  p :     2.841156
      px      :     0.995675
      py      :     0.700800
      dz2     :     0.087321  d :     0.459545
      dxz     :     0.181528
      dyz     :     0.009984
      dx2y2   :     0.130916
      dxy     :     0.049797
      f0      :     0.009391  f :     0.165015
      f+1     :     0.079071
      f-1     :     0.000400
      f+2     :     0.027074
      f-2     :     0.009379
      f+3     :     0.023324
      f-3     :     0.016375
      g0      :     0.005287  g :     0.045877
      g+1     :     0.006278
      g-1     :     0.000227
      g+2     :     0.014722
      g-2     :     0.000029
      g+3     :     0.006668
      g-3     :     0.003149
      g+4     :     0.005656
      g-4     :     0.003861
      h0      :     0.001166  h :     0.013721
      h+1     :     0.000742
      h-1     :     0.000004
      h+2     :     0.002533
      h-2     :     0.000102
      h+3     :     0.003816
      h-3     :     0.000094
      h+4     :     0.001815
      h-4     :     0.000646
      h+5     :     0.001387
      h-5     :     0.001415
  3 H s       :     0.653173  s :     0.653173
      pz      :     0.188663  p :     0.425660
      px      :     0.158564
      py      :     0.078433
      dz2     :     0.098552  d :     0.344344
      dxz     :     0.088460
      dyz     :     0.026524
      dx2y2   :     0.073400
      dxy     :     0.057408
      f0      :     0.025740  f :     0.146049
      f+1     :     0.034389
      f-1     :     0.001433
      f+2     :     0.029567
      f-2     :     0.011807
      f+3     :     0.025687
      f-3     :     0.017427
      g0      :     0.003462  g :     0.068666
      g+1     :     0.019546
      g-1     :     0.000030
      g+2     :     0.008889
      g-2     :     0.000100
      g+3     :     0.013885
      g-3     :     0.002370
      g+4     :     0.012178
      g-4     :     0.008207

SPIN
  0 N s       :     0.000000  s :     0.000000
      pz      :     0.000000  p :     0.000000
      px      :     0.000000
      py      :    -0.000000
      dz2     :    -0.000000  d :     0.000000
      dxz     :     0.000000
      dyz     :    -0.000000
      dx2y2   :     0.000000
      dxy     :    -0.000000
      f0      :    -0.000000  f :    -0.000000
      f+1     :    -0.000000
      f-1     :     0.000000
      f+2     :    -0.000000
      f-2     :     0.000000
      f+3     :    -0.000000
      f-3     :    -0.000000
      g0      :     0.000000  g :     0.000000
      g+1     :    -0.000000
      g-1     :    -0.000000
      g+2     :     0.000000
      g-2     :    -0.000000
      g+3     :     0.000000
      g-3     :     0.000000
      g+4     :     0.000000
      g-4     :     0.000000
      h0      :    -0.000000  h :     0.000000
      h+1     :     0.000000
      h-1     :     0.000000
      h+2     :     0.000000
      h-2     :    -0.000000
      h+3     :     0.000000
      h-3     :    -0.000000
      h+4     :     0.000000
      h-4     :    -0.000000
      h+5     :    -0.000000
      h-5     :     0.000000
  1 H s       :     0.000000  s :     0.000000
      pz      :     0.000000  p :     0.000000
      px      :     0.000000
      py      :     0.000000
      dz2     :    -0.000000  d :    -0.000000
      dxz     :    -0.000000
      dyz     :    -0.000000
      dx2y2   :     0.000000
      dxy     :    -0.000000
      f0      :    -0.000000  f :    -0.000000
      f+1     :     0.000000
      f-1     :    -0.000000
      f+2     :    -0.000000
      f-2     :    -0.000000
      f+3     :     0.000000
      f-3     :     0.000000
      g0      :    -0.000000  g :     0.000000
      g+1     :     0.000000
      g-1     :    -0.000000
      g+2     :     0.000000
      g-2     :     0.000000
      g+3     :    -0.000000
      g-3     :     0.000000
      g+4     :    -0.000000
      g-4     :     0.000000
  2 N s       :    -0.000000  s :    -0.000000
      pz      :     0.000000  p :    -0.000000
      px      :    -0.000000
      py      :     0.000000
      dz2     :    -0.000000  d :    -0.000000
      dxz     :    -0.000000
      dyz     :     0.000000
      dx2y2   :    -0.000000
      dxy     :     0.000000
      f0      :     0.000000  f :     0.000000
      f+1     :     0.000000
      f-1     :     0.000000
      f+2     :     0.000000
      f-2     :    -0.000000
      f+3     :     0.000000
      f-3     :     0.000000
      g0      :    -0.000000  g :    -0.000000
      g+1     :    -0.000000
      g-1     :     0.000000
      g+2     :    -0.000000
      g-2     :    -0.000000
      g+3     :    -0.000000
      g-3     :     0.000000
      g+4     :    -0.000000
      g-4     :    -0.000000
      h0      :     0.000000  h :    -0.000000
      h+1     :    -0.000000
      h-1     :    -0.000000
      h+2     :    -0.000000
      h-2     :     0.000000
      h+3     :     0.000000
      h-3     :    -0.000000
      h+4     :    -0.000000
      h-4     :    -0.000000
      h+5     :    -0.000000
      h-5     :    -0.000000
  3 H s       :    -0.000000  s :    -0.000000
      pz      :    -0.000000  p :    -0.000000
      px      :     0.000000
      py      :    -0.000000
      dz2     :     0.000000  d :     0.000000
      dxz     :     0.000000
      dyz     :    -0.000000
      dx2y2   :    -0.000000
      dxy     :     0.000000
      f0      :    -0.000000  f :     0.000000
      f+1     :    -0.000000
      f-1     :     0.000000
      f+2     :    -0.000000
      f-2     :     0.000000
      f+3     :     0.000000
      f-3     :     0.000000
      g0      :     0.000000  g :    -0.000000
      g+1     :    -0.000000
      g-1     :    -0.000000
      g+2     :     0.000000
      g-2     :    -0.000000
      g+3     :    -0.000000
      g-3     :     0.000000
      g+4     :    -0.000000
      g-4     :    -0.000000


                      *****************************
                      * MAYER POPULATION ANALYSIS *
                      *****************************

  NA   - Mulliken gross atomic population
  ZA   - Total nuclear charge
  QA   - Mulliken gross atomic charge
  VA   - Mayer's total valence
  BVA  - Mayer's bonded valence
  FA   - Mayer's free valence

  ATOM       NA         ZA         QA         VA         BVA        FA
  0 N      7.1020     7.0000    -0.1020     2.6526     2.6526     0.0000
  1 H      0.8981     1.0000     0.1019     1.0370     1.0370    -0.0000
  2 N      7.1019     7.0000    -0.1019     2.6526     2.6526     0.0000
  3 H      0.8980     1.0000     0.1020     1.0368     1.0368     0.0000

  Mayer bond orders larger than 0.1
B(  0-N ,  1-H ) :   0.9984 B(  0-N ,  2-N ) :   1.6087 B(  2-N ,  3-H ) :   0.9983 


-------
TIMINGS
-------

Total SCF time: 0 days 1 hours 27 min 58 sec 

Total time                  ....    5278.051 sec
Sum of individual times     ....    5277.048 sec  (100.0%)

Fock matrix formation       ....    5263.370 sec  ( 99.7%)
  XC integration            ....     190.805 sec  (  3.6% of F)
    Basis function eval.    ....      11.417 sec  (  6.0% of XC)
    Density eval.           ....      50.173 sec  ( 26.3% of XC)
    XC-Functional eval.     ....       1.093 sec  (  0.6% of XC)
    XC-Potential eval.      ....     126.999 sec  ( 66.6% of XC)
Diagonalization             ....       1.854 sec  (  0.0%)
Density matrix formation    ....       0.032 sec  (  0.0%)
Population analysis         ....       0.219 sec  (  0.0%)
Initial guess               ....       8.052 sec  (  0.2%)
Orbital Transformation      ....       0.000 sec  (  0.0%)
Orbital Orthonormalization  ....       0.000 sec  (  0.0%)
DIIS solution               ....       0.847 sec  (  0.0%)
Grid generation             ....       2.675 sec  (  0.1%)

-------------------------   --------------------
FINAL SINGLE POINT ENERGY      -110.565478186736
-------------------------   --------------------


                            ***************************************
                            *     ORCA property calculations      *
                            ***************************************

                                    ---------------------
                                    Active property flags
                                    ---------------------
   (+) Dipole Moment
   (+) Polarizability


------------------------------------------------------------------------------
                       ORCA ELECTRIC PROPERTIES CALCULATION
------------------------------------------------------------------------------

Dipole Moment Calculation                       ... on
Quadrupole Moment Calculation                   ... off
Polarizability Calculation                      ... Analytic (CP-SCF)
GBWName                                         ... n2h2_pbe.gbw
Electron density file                           ... n2h2_pbe.scfp.tmp
The origin for moment calculation is the CENTER OF MASS  = ( 1.145510,  0.000000 -0.320933)

-------------
DIPOLE MOMENT
-------------
                                X             Y             Z
Electronic contribution:     -0.21829      -0.00000      -0.55311
Nuclear contribution   :      0.61763       0.00000       1.56499
                        -----------------------------------------
Total Dipole Moment    :      0.39934      -0.00000       1.01189
                        -----------------------------------------
Magnitude (a.u.)       :      1.08784
Magnitude (Debye)      :      2.76506



--------------------
Rotational spectrum 
--------------------
 
Rotational constants in cm-1:     9.693880     1.294345     1.141879 
Rotational constants in MHz : 290615.212533 38803.474450 34232.666269 

 Dipole components along the rotational axes: 
x,y,z [a.u.] :    -0.000007     1.087837    -0.000000 
x,y,z [Debye]:    -0.000017     2.765061    -0.000000 

 
Transforming and storing MO dipole integrals   ... done

                ... starting polarizability calculation

Opening the Dipole integral file               ... (n2h2_pbe.dmo.tmp) done
Reading Dipole-MO integrals                    ... done
Solving CP-SCF equations                       ... 
------------------------------------------------------------------------------
                           ORCA CP-SCF CALCULATION
------------------------------------------------------------------------------

Input orbitals are from        ... n2h2_pbe.gbw
Input Perturbation             ... n2h2_pbe.cpv.tmp
Wavefunction output            ... n2h2_pbe.cpu.tmp
Perturbation mode              ... Real perturbation (singlet)
Solver                         ... POPLE
Max. number of iterations      ... 200
Convergence tolerance          ... 1.000e-06
Integral handling              ... Direct
Number of perturbations        ... 3
Number of operators            ... 2
Orbital ranges used for CP-SCF:
 Operator 0:  Orbitals   0...  7  to   8...465
 Operator 1:  Orbitals   0...  7  to   8...465
DFT calculation                         ... on
Exchange functional (SCF)               ... PBE
Exchange functional (CP-SCF)            ... PBE
   PBE kappa parameter  XKappa (SCF)    ...  0.804000
   PBE kappa parameter  XKappa (CP-SCF) ...  0.804000
   PBE mue parameter   XMuePBE (SCF)    ...  0.219520
   PBE mue parameter   XMuePBE (CP-SCF) ...  0.219520
Correlation functional (SCF)            ... PBE
Correlation functional (CP-SCF)         ... PBE
   PBE beta parameter CBetaPBE (SCF)    ...  0.066725
   PBE beta parameter CBetaPBE (CP-SCF) ...  0.066725
 LDA part of GGA corr.  LDAOpt (SCF)    ... PW91-LDA
 LDA part of GGA corr.  LDAOpt (CP-SCF) ... PW91-LDA
Variables per vector in CP-SCF ... 7328
Number of vectors sought       ... 3
Recalculating density on grid  ... done
Calculating the xc-kernel      ... done
     CP-SCF ITERATION   0: 
     CP-SCF ITERATION   1:      1.050170232925
     CP-SCF ITERATION   2:      0.078150087149
     CP-SCF ITERATION   3:      0.001672834604
     CP-SCF ITERATION   4:      0.000017130066
     CP-SCF ITERATION   5:      0.000000346168
done
Reading CP-SCF coefficients                    ... done
Doing the polarizability tensor   ... done
Cleaning up                                    ... done

-------------------------
THE POLARIZABILITY TENSOR
-------------------------

The raw cartesian tensor (atomic units):
   25.53928      0.00000     -2.01065  
    0.00000     14.58650      0.00000  
   -2.01065      0.00000     21.23929  
diagonalized tensor: 
   14.58650     20.44562     26.33295  

   -0.00000     -0.36717     -0.93016  
    1.00000     -0.00000     -0.00000  
   -0.00000     -0.93016      0.36717  

Isotropic polarizability :  20.45502


Timings for individual modules:

Sum of individual times         ...     9416.652 sec (= 156.944 min)
GTO integral calculation        ...        1.402 sec (=   0.023 min)   0.0 %
SCF iterations                  ...     5278.091 sec (=  87.968 min)  56.1 %
Solution of CP-SCF eqns.        ...     4137.159 sec (=  68.953 min)  43.9 %
                             ****ORCA TERMINATED NORMALLY****
TOTAL RUN TIME: 0 days 2 hours 36 minutes 57 seconds 234 msec
