
                                 *****************
                                 * O   R   C   A *
                                 *****************

           --- An Ab Initio, DFT and Semiempirical electronic structure package ---

                  #######################################################
                  #                        -***-                        #
                  #          Department of theory and spectroscopy      #
                  #               Directorship: Frank Neese             #
                  #        Max Planck Institute fuer Kohlenforschung    #
                  #                Kaiser Wilhelm Platz 1               #
                  #                 D-45470 Muelheim/Ruhr               #
                  #                      Germany                        #
                  #                                                     #
                  #                  All rights reserved                #
                  #                        -***-                        #
                  #######################################################


                         Program Version 4.1.2  - RELEASE  -


 With contributions from (in alphabetic order):
   Daniel Aravena         : Magnetic Properties
   Michael Atanasov       : Ab Initio Ligand Field Theory
   Alexander A. Auer      : GIAO ZORA
   Ute Becker             : Parallelization
   Giovanni Bistoni       : ED, Open-shell LED
   Martin Brehm           : Molecular dynamics
   Dmytro Bykov           : SCF Hessian
   Vijay G. Chilkuri      : MRCI spin determinant printing
   Dipayan Datta          : RHF DLPNO-CCSD density
   Achintya Kumar Dutta   : EOM-CC, STEOM-CC
   Dmitry Ganyushin       : Spin-Orbit,Spin-Spin,Magnetic field MRCI
   Miquel Garcia          : C-PCM Hessian
   Yang Guo               : DLPNO-NEVPT2, CIM, IAO-localization
   Andreas Hansen         : Spin unrestricted coupled pair/coupled cluster methods
   Benjamin Helmich-Paris : CASSCF linear response (MC-RPA)
   Lee Huntington         : MR-EOM, pCC
   Robert Izsak           : Overlap fitted RIJCOSX, COSX-SCS-MP3, EOM
   Christian Kollmar      : KDIIS, OOCD, Brueckner-CCSD(T), CCSD density
   Simone Kossmann        : Meta GGA functionals, TD-DFT gradient, OOMP2, MP2 Hessian
   Martin Krupicka        : AUTO-CI
   Lucas Lang             : DCDCAS
   Dagmar Lenk            : GEPOL surface, SMD
   Dimitrios Liakos       : Extrapolation schemes; parallel MDCI
   Dimitrios Manganas     : ROCIS; embedding schemes
   Dimitrios Pantazis     : SARC Basis sets
   Taras Petrenko         : DFT Hessian,TD-DFT gradient, ASA, ECA, R-Raman, ABS, FL, XAS/XES, NRVS
   Peter Pinski           : DLPNO-MP2, DLPNO-MP2 Gradient
   Christoph Reimann      : Effective Core Potentials
   Marius Retegan         : Local ZFS, SOC
   Christoph Riplinger    : Optimizer, TS searches, QM/MM, DLPNO-CCSD(T), (RO)-DLPNO pert. Triples
   Tobias Risthaus        : Range-separated hybrids, TD-DFT gradient, RPA, STAB
   Michael Roemelt        : Restricted open shell CIS
   Masaaki Saitow         : Open-shell DLPNO
   Barbara Sandhoefer     : DKH picture change effects
   Avijit Sen             : IP-ROCIS
   Kantharuban Sivalingam : CASSCF convergence, NEVPT2, FIC-MRCI
   Bernardo de Souza      : ESD, SOC TD-DFT
   Georgi Stoychev        : AutoAux, RI-MP2 NMR
   Willem Van den Heuvel  : Paramagnetic NMR
   Boris Wezisla          : Elementary symmetry handling
   Frank Wennmohs         : Technical directorship


 We gratefully acknowledge several colleagues who have allowed us to
 interface, adapt or use parts of their codes:
   Stefan Grimme, W. Hujo, H. Kruse,             : VdW corrections, initial TS optimization,
                  C. Bannwarth                     DFT functionals, gCP, sTDA/sTD-DF
   Ed Valeev                                     : LibInt (2-el integral package), F12 methods
   Garnet Chan, S. Sharma, J. Yang, R. Olivares  : DMRG
   Ulf Ekstrom                                   : XCFun DFT Library
   Mihaly Kallay                                 : mrcc  (arbitrary order and MRCC methods)
   Andreas Klamt, Michael Diedenhofen            : otool_cosmo (COSMO solvation model)
   Jiri Pittner, Ondrej Demel                    : Mk-CCSD
   Frank Weinhold                                : gennbo (NPA and NBO analysis)
   Christopher J. Cramer and Donald G. Truhlar   : smd solvation model
   Lars Goerigk                                  : TD-DFT with DH, B97 family of functionals
   V. Asgeirsson, H. Jonsson                     : NEB implementation
   FAccTs GmbH                                   : IRC, NEB, NEB-TS, Multilevel


 Your calculation uses the libint2 library for the computation of 2-el integrals
 For citations please refer to: http://libint.valeyev.net

 This ORCA versions uses:
   CBLAS   interface :  Fast vector & matrix operations
   LAPACKE interface :  Fast linear algebra routines
   SCALAPACK package :  Parallel linear algebra routines


----- Orbital basis set information -----
Your calculation utilizes the basis: aug-pc-4
   H, C-F              : F. Jensen, J. Chem. Phys. 115, 9113 (2001).
                         F. Jensen, J. Chem. Phys. 116, 7372 (2002).
                         F. Jensen, J. Chem. Phys. 117, 9234 (2002).
   Si-Cl               : F. Jensen, T. Helgaker, J. Chem. Phys. 121, 3463 (2004).
   He-B, Ne-Mg, Al, Ar : F. Jensen, J. Phys. Chem. A 111, 11198 (2007).
   K, Ca, Ga-Kr        : F. Jensen, J. Chem. Phys. 136, 094110 (2012).
   Sc-Zn               : F. Jensen, J. Chem. Phys. 138, 014107 (2013).

================================================================================
                                        WARNINGS
                       Please study these warnings very carefully!
================================================================================


INFO   : the flag for use of LIBINT has been found!

================================================================================
                                       INPUT FILE
================================================================================
NAME = n_pbe.inp
|  1> !uks pbe nori aug-pc-4 grid7 nofinalgrid verytightscf
|  2> 
|  3> %maxcore 1500
|  4> 
|  5> %pal nprocs 1 end
|  6> 
|  7> %scf
|  8> 	maxiter 200
|  9> end
| 10> %elprop
| 11> 	dipole true
| 12> 	 polar 1
| 13> 	 maxiter 200
| 14> end
| 15> 
| 16> * xyz 0 4
| 17> N 0.0 0.0 0.0
| 18> *
| 19> 
| 20>                          ****END OF INPUT****
================================================================================

                       ****************************
                       * Single Point Calculation *
                       ****************************

---------------------------------
CARTESIAN COORDINATES (ANGSTROEM)
---------------------------------
  N      0.000000    0.000000    0.000000

----------------------------
CARTESIAN COORDINATES (A.U.)
----------------------------
  NO LB      ZA    FRAG     MASS         X           Y           Z
   0 N     7.0000    0    14.007    0.000000    0.000000    0.000000

--------------------------------
INTERNAL COORDINATES (ANGSTROEM)
--------------------------------
 N      0   0   0     0.000000000000     0.00000000     0.00000000

---------------------------
INTERNAL COORDINATES (A.U.)
---------------------------
 N      0   0   0     0.000000000000     0.00000000     0.00000000

---------------------
BASIS SET INFORMATION
---------------------
There are 1 groups of distinct atoms

 Group   1 Type N   : 27s12p7d4f3g2h contracted to 9s8p7d4f3g2h pattern {1191111111/51111111/1111111/1111/111/11}

Atom   0N    basis set group =>   1
------------------------------------------------------------------------------
                           ORCA GTO INTEGRAL CALCULATION
------------------------------------------------------------------------------

                         BASIS SET STATISTICS AND STARTUP INFO

 # of primitive gaussian shells          ...   55
 # of primitive gaussian functions       ...  175
 # of contracted shells                  ...   33
 # of contracted basis functions         ...  145
 Highest angular momentum                ...    5
 Maximum contraction depth               ...   11
 Integral package used                   ... LIBINT
 Integral threshhold            Thresh   ...  1.000e-12
 Primitive cut-off              TCut     ...  1.000e-14


------------------------------ INTEGRAL EVALUATION ----------------------------


 * One electron integrals 
 Pre-screening matrix                    ... done
 Shell pair data                         ... done (   0.000 sec)

-------------------------------------------------------------------------------
                                 ORCA SCF
-------------------------------------------------------------------------------

------------
SCF SETTINGS
------------
Hamiltonian:
 Density Functional     Method          .... DFT(GTOs)
 Exchange Functional    Exchange        .... PBE
   PBE kappa parameter   XKappa         ....  0.804000
   PBE mue parameter    XMuePBE         ....  0.219520
 Correlation Functional Correlation     .... PBE
   PBE beta parameter  CBetaPBE         ....  0.066725
 LDA part of GGA corr.  LDAOpt          .... PW91-LDA
 Gradients option       PostSCFGGA      .... off
   Density functional embedding theory  .... OFF
   NL short-range parameter             ....  6.400000


General Settings:
 Integral files         IntName         .... n_pbe
 Hartree-Fock type      HFTyp           .... UHF
 Total Charge           Charge          ....    0
 Multiplicity           Mult            ....    4
 Number of Electrons    NEL             ....    7
 Basis Dimension        Dim             ....  145
 Nuclear Repulsion      ENuc            ....      0.0000000000 Eh

Convergence Acceleration:
 DIIS                   CNVDIIS         .... on
   Start iteration      DIISMaxIt       ....    12
   Startup error        DIISStart       ....  0.200000
   # of expansion vecs  DIISMaxEq       ....     5
   Bias factor          DIISBfac        ....   1.050
   Max. coefficient     DIISMaxC        ....  10.000
 Newton-Raphson         CNVNR           .... off
 SOSCF                  CNVSOSCF        .... off
 Level Shifting         CNVShift        .... on
   Level shift para.    LevelShift      ....    0.2500
   Turn off err/grad.   ShiftErr        ....    0.0010
 Zerner damping         CNVZerner       .... off
 Static damping         CNVDamp         .... on
   Fraction old density DampFac         ....    0.7000
   Max. Damping (<1)    DampMax         ....    0.9800
   Min. Damping (>=0)   DampMin         ....    0.0000
   Turn off err/grad.   DampErr         ....    0.1000
 Fernandez-Rico         CNVRico         .... off

SCF Procedure:
 Maximum # iterations   MaxIter         ....   200
 SCF integral mode      SCFMode         .... Direct
   Integral package                     .... LIBINT
 Reset frequency        DirectResetFreq ....    20
 Integral Threshold     Thresh          ....  1.000e-12 Eh
 Primitive CutOff       TCut            ....  1.000e-14 Eh

Convergence Tolerance:
 Convergence Check Mode ConvCheckMode   .... Total+1el-Energy
 Convergence forced     ConvForced      .... 0
 Energy Change          TolE            ....  1.000e-09 Eh
 1-El. energy change                    ....  1.000e-06 Eh
 DIIS Error             TolErr          ....  1.000e-08


Diagonalization of the overlap matrix:
Smallest eigenvalue                        ... 8.449e-04
Time for diagonalization                   ...    0.003 sec
Threshold for overlap eigenvalues          ... 1.000e-08
Number of eigenvalues below threshold      ... 0
Time for construction of square roots      ...    0.005 sec
Total time needed                          ...    0.009 sec

-------------------
DFT GRID GENERATION
-------------------

General Integration Accuracy     IntAcc      ...  5.670
Radial Grid Type                 RadialGrid  ... Gauss-Chebyshev
Angular Grid (max. acc.)         AngularGrid ... Lebedev-770
Angular grid pruning method      GridPruning ... 3 (G Style)
Weight generation scheme         WeightScheme... Becke
Basis function cutoff            BFCut       ...    1.0000e-12
Integration weight cutoff        WCut        ...    1.0000e-14
Grids for H and He will be reduced by one unit

# of grid points (after initial pruning)     ...  25034 (   0.0 sec)
# of grid points (after weights+screening)   ...  25034 (   0.0 sec)
Grid point division into batches done        ...    0.6 sec
Reduced shell lists constructed in    0.7 sec

Total number of grid points                  ...    25034
Total number of batches                      ...      392
Average number of points per batch           ...       63
Average number of grid points per atom       ...    25034
Average number of shells per batch           ...    26.58 (80.54%)
Average number of basis functions per batch  ...   119.43 (82.36%)
Average number of large shells per batch     ...    24.78 (93.25%)
Average number of large basis fcns per batch ...   111.69 (93.52%)
Maximum spatial batch extension              ...  14.02, 14.02, 14.02 au
Average spatial batch extension              ...   2.89,  2.88,  2.88 au

Time for grid setup =    0.732 sec

------------------------------
INITIAL GUESS: MODEL POTENTIAL
------------------------------
Loading Hartree-Fock densities                     ... done
Calculating cut-offs                               ... done
Setting up the integral package                    ... done
Initializing the effective Hamiltonian             ... done
Starting the Coulomb interaction                   ... done (   0.0 sec)
Reading the grid                                   ... done
Mapping shells                                     ... done
Starting the XC term evaluation                    ... done (   0.4 sec)
  promolecular density results
     # of electrons  =      6.999999986
     EX              =     -6.357114019
     EC              =     -0.198968702
     EX+EC           =     -6.556082721
Transforming the Hamiltonian                       ... done (   0.0 sec)
Diagonalizing the Hamiltonian                      ... done (   0.0 sec)
Back transforming the eigenvectors                 ... done (   0.0 sec)
Now organizing SCF variables                       ... done
                      ------------------
                      INITIAL GUESS DONE (   1.2 sec)
                      ------------------
--------------
SCF ITERATIONS
--------------
ITER       Energy         Delta-E        Max-DP      RMS-DP      [F,P]     Damp
               ***  Starting incremental Fock matrix formation  ***
  0    -54.5303171115   0.000000000000 0.00851366  0.00009280  0.0376687 0.7000
  1    -54.5322768867  -0.001959775173 0.00734918  0.00007779  0.0236575 0.7000
                               ***Turning on DIIS***
  2    -54.5334217233  -0.001144836622 0.01966247  0.00018352  0.0127841 0.0000
  3    -54.5354651391  -0.002043415812 0.00243175  0.00003912  0.0140386 0.0000
  4    -54.5357265629  -0.000261423829 0.00118799  0.00001576  0.0034312 0.0000
  5    -54.5357435762  -0.000017013308 0.00050144  0.00000642  0.0006533 0.0000
  6    -54.5357447067  -0.000001130452 0.00004055  0.00000048  0.0000686 0.0000
  7    -54.5357447208  -0.000000014093 0.00000178  0.00000002  0.0000026 0.0000
  8    -54.5357447208  -0.000000000011 0.00000015  0.00000000  0.0000004 0.0000
                 **** Energy Check signals convergence ****

               *****************************************************
               *                     SUCCESS                       *
               *           SCF CONVERGED AFTER   9 CYCLES          *
               *****************************************************


----------------
TOTAL SCF ENERGY
----------------

Total Energy       :          -54.53574472 Eh           -1483.99306 eV

Components:
Nuclear Repulsion  :            0.00000000 Eh               0.00000 eV
Electronic Energy  :          -54.53574472 Eh           -1483.99306 eV
One Electron Energy:          -73.90159315 Eh           -2010.96458 eV
Two Electron Energy:           19.36584842 Eh             526.97153 eV

Virial components:
Potential Energy   :         -108.91799001 Eh           -2963.80919 eV
Kinetic Energy     :           54.38224529 Eh            1479.81613 eV
Virial Ratio       :            2.00282260


DFT components:
N(Alpha)           :        5.000000000029 electrons
N(Beta)            :        2.000000000019 electrons
N(Total)           :        7.000000000049 electrons
E(X)               :       -6.530059708344 Eh       
E(C)               :       -0.178603580853 Eh       
E(XC)              :       -6.708663289197 Eh       
DFET-embed. en.    :        0.000000000000 Eh       

---------------
SCF CONVERGENCE
---------------

  Last Energy change         ...   -3.5527e-13  Tolerance :   1.0000e-09
  Last MAX-Density change    ...    1.1297e-08  Tolerance :   1.0000e-08
  Last RMS-Density change    ...    1.0676e-10  Tolerance :   1.0000e-09
  Last DIIS Error            ...    1.2287e-08  Tolerance :   1.0000e-08

             **** THE GBW FILE WAS UPDATED (n_pbe.gbw) ****
             **** DENSITY FILE WAS UPDATED (n_pbe.scfp.tmp) ****
             **** ENERGY FILE WAS UPDATED (n_pbe.en.tmp) ****
----------------------
UHF SPIN CONTAMINATION
----------------------

Warning: in a DFT calculation there is little theoretical justification to 
         calculate <S**2> as in Hartree-Fock theory. We will do it anyways
         but you should keep in mind that the values have only limited relevance

Expectation value of <S**2>     :     3.752507
Ideal value S*(S+1) for S=1.5   :     3.750000
Deviation                       :     0.002507

----------------
ORBITAL ENERGIES
----------------
                 SPIN UP ORBITALS
  NO   OCC          E(Eh)            E(eV) 
   0   1.0000     -14.109304      -383.9337 
   1   1.0000      -0.729521       -19.8513 
   2   1.0000      -0.305174        -8.3042 
   3   1.0000      -0.305174        -8.3042 
   4   1.0000      -0.305174        -8.3042 
   5   0.0000      -0.000691        -0.0188 
   6   0.0000       0.026923         0.7326 
   7   0.0000       0.026923         0.7326 
   8   0.0000       0.026923         0.7326 
   9   0.0000       0.137828         3.7505 
  10   0.0000       0.137828         3.7505 
  11   0.0000       0.137828         3.7505 
  12   0.0000       0.138942         3.7808 
  13   0.0000       0.138942         3.7808 
  14   0.0000       0.138942         3.7808 
  15   0.0000       0.138942         3.7808 
  16   0.0000       0.138942         3.7808 
  17   0.0000       0.215335         5.8596 
  18   0.0000       0.322311         8.7705 
  19   0.0000       0.322311         8.7705 
  20   0.0000       0.322311         8.7705 
  21   0.0000       0.322311         8.7705 
  22   0.0000       0.322311         8.7705 
  23   0.0000       0.322311         8.7705 
  24   0.0000       0.322311         8.7705 
  25   0.0000       0.453981        12.3535 
  26   0.0000       0.453981        12.3535 
  27   0.0000       0.453981        12.3535 
  28   0.0000       0.453981        12.3535 
  29   0.0000       0.453981        12.3535 
  30   0.0000       0.474644        12.9157 
  31   0.0000       0.474644        12.9157 
  32   0.0000       0.474644        12.9157 
  33   0.0000       0.541079        14.7235 
  34   0.0000       0.541079        14.7235 
  35   0.0000       0.541079        14.7235 
  36   0.0000       0.541079        14.7235 
  37   0.0000       0.541079        14.7235 
  38   0.0000       0.541079        14.7235 
  39   0.0000       0.541079        14.7235 
  40   0.0000       0.541079        14.7235 
  41   0.0000       0.541079        14.7235 
  42   0.0000       0.803234        21.8571 
  43   0.0000       0.803234        21.8571 
  44   0.0000       0.803234        21.8571 
  45   0.0000       0.803234        21.8571 
  46   0.0000       0.803234        21.8571 
  47   0.0000       0.803234        21.8571 
  48   0.0000       0.803234        21.8571 
  49   0.0000       0.803234        21.8571 
  50   0.0000       0.803234        21.8571 
  51   0.0000       0.803234        21.8571 
  52   0.0000       0.803234        21.8571 
  53   0.0000       0.853172        23.2160 
  54   0.0000       1.163218        31.6528 
  55   0.0000       1.163218        31.6528 
  56   0.0000       1.163218        31.6528 
  57   0.0000       1.163218        31.6528 
  58   0.0000       1.163218        31.6528 
  59   0.0000       1.335498        36.3407 
  60   0.0000       1.335498        36.3407 
  61   0.0000       1.335498        36.3407 
  62   0.0000       1.542676        41.9784 
  63   0.0000       1.542676        41.9784 
  64   0.0000       1.542676        41.9784 
  65   0.0000       1.542676        41.9784 
  66   0.0000       1.542676        41.9784 
  67   0.0000       1.542676        41.9784 
  68   0.0000       1.542676        41.9784 
  69   0.0000       2.600782        70.7709 
  70   0.0000       2.800023        76.1925 
  71   0.0000       2.800023        76.1925 
  72   0.0000       2.800023        76.1925 
  73   0.0000       2.800023        76.1925 
  74   0.0000       2.800023        76.1925 
  75   0.0000       3.457660        94.0877 
  76   0.0000       3.457660        94.0877 
  77   0.0000       3.457660        94.0877 
  78   0.0000       4.327250       117.7504 
  79   0.0000       4.327250       117.7504 
  80   0.0000       4.327250       117.7504 
  81   0.0000       4.327250       117.7504 
  82   0.0000       4.327250       117.7504 
  83   0.0000       4.327250       117.7504 
  84   0.0000       4.327250       117.7504 
  85   0.0000       4.886447       132.9670 
  86   0.0000       4.886447       132.9670 
  87   0.0000       4.886447       132.9670 
  88   0.0000       4.886447       132.9670 
  89   0.0000       4.886447       132.9670 
  90   0.0000       4.886447       132.9670 
  91   0.0000       4.886447       132.9670 
  92   0.0000       4.886447       132.9670 
  93   0.0000       4.886447       132.9670 
  94   0.0000       6.607841       179.8085 
  95   0.0000       6.607841       179.8085 
  96   0.0000       6.607841       179.8085 
  97   0.0000       6.607841       179.8085 
  98   0.0000       6.607841       179.8085 
  99   0.0000       7.229834       196.7338 
 100   0.0000       8.669073       235.8975 
 101   0.0000       8.669073       235.8975 
 102   0.0000       8.669073       235.8975 
 103   0.0000      10.959042       298.2107 
 104   0.0000      10.959042       298.2107 
 105   0.0000      10.959042       298.2107 
 106   0.0000      10.959042       298.2107 
 107   0.0000      10.959042       298.2107 
 108   0.0000      10.959042       298.2107 
 109   0.0000      10.959042       298.2107 
 110   0.0000      11.272240       306.7333 
 111   0.0000      11.272240       306.7333 
 112   0.0000      11.272240       306.7333 
 113   0.0000      11.272240       306.7333 
 114   0.0000      11.272240       306.7333 
 115   0.0000      11.272240       306.7333 
 116   0.0000      11.272240       306.7333 
 117   0.0000      11.272240       306.7333 
 118   0.0000      11.272240       306.7333 
 119   0.0000      11.272240       306.7333 
 120   0.0000      11.272240       306.7333 
 121   0.0000      14.095970       383.5708 
 122   0.0000      14.095970       383.5708 
 123   0.0000      14.095970       383.5708 
 124   0.0000      14.095970       383.5708 
 125   0.0000      14.095970       383.5708 
 126   0.0000      14.095970       383.5708 
 127   0.0000      14.095970       383.5708 
 128   0.0000      14.095970       383.5708 
 129   0.0000      14.095970       383.5708 
 130   0.0000      16.560518       450.6346 
 131   0.0000      16.560518       450.6346 
 132   0.0000      16.560518       450.6346 
 133   0.0000      16.560518       450.6346 
 134   0.0000      16.560518       450.6346 
 135   0.0000      20.554622       559.3197 
 136   0.0000      25.583074       696.1508 
 137   0.0000      25.583074       696.1508 
 138   0.0000      25.583074       696.1508 
 139   0.0000      47.428115      1290.5846 
 140   0.0000      47.428115      1290.5846 
 141   0.0000      47.428115      1290.5846 
 142   0.0000      47.428115      1290.5846 
 143   0.0000      47.428115      1290.5846 
 144   0.0000     100.549207      2736.0830 

                 SPIN DOWN ORBITALS
  NO   OCC          E(Eh)            E(eV) 
   0   1.0000     -14.053381      -382.4119 
   1   1.0000      -0.561539       -15.2803 
   2   0.0000      -0.151945        -4.1346 
   3   0.0000      -0.151945        -4.1346 
   4   0.0000      -0.151945        -4.1346 
   5   0.0000       0.032964         0.8970 
   6   0.0000       0.044138         1.2011 
   7   0.0000       0.044138         1.2011 
   8   0.0000       0.044138         1.2011 
   9   0.0000       0.170497         4.6395 
  10   0.0000       0.170497         4.6395 
  11   0.0000       0.170497         4.6395 
  12   0.0000       0.170497         4.6395 
  13   0.0000       0.170497         4.6395 
  14   0.0000       0.173906         4.7322 
  15   0.0000       0.173906         4.7322 
  16   0.0000       0.173906         4.7322 
  17   0.0000       0.256641         6.9835 
  18   0.0000       0.356243         9.6939 
  19   0.0000       0.356243         9.6939 
  20   0.0000       0.356243         9.6939 
  21   0.0000       0.356243         9.6939 
  22   0.0000       0.356243         9.6939 
  23   0.0000       0.356243         9.6939 
  24   0.0000       0.356243         9.6939 
  25   0.0000       0.501639        13.6503 
  26   0.0000       0.501639        13.6503 
  27   0.0000       0.501639        13.6503 
  28   0.0000       0.501639        13.6503 
  29   0.0000       0.501639        13.6503 
  30   0.0000       0.531276        14.4568 
  31   0.0000       0.531276        14.4568 
  32   0.0000       0.531276        14.4568 
  33   0.0000       0.575654        15.6643 
  34   0.0000       0.575654        15.6643 
  35   0.0000       0.575654        15.6643 
  36   0.0000       0.575654        15.6643 
  37   0.0000       0.575654        15.6643 
  38   0.0000       0.575654        15.6643 
  39   0.0000       0.575654        15.6643 
  40   0.0000       0.575654        15.6643 
  41   0.0000       0.575654        15.6643 
  42   0.0000       0.838177        22.8079 
  43   0.0000       0.838177        22.8079 
  44   0.0000       0.838177        22.8079 
  45   0.0000       0.838177        22.8079 
  46   0.0000       0.838177        22.8079 
  47   0.0000       0.838177        22.8079 
  48   0.0000       0.838177        22.8079 
  49   0.0000       0.838177        22.8079 
  50   0.0000       0.838177        22.8079 
  51   0.0000       0.838177        22.8079 
  52   0.0000       0.838177        22.8079 
  53   0.0000       0.929818        25.3016 
  54   0.0000       1.257174        34.2095 
  55   0.0000       1.257174        34.2095 
  56   0.0000       1.257174        34.2095 
  57   0.0000       1.257174        34.2095 
  58   0.0000       1.257174        34.2095 
  59   0.0000       1.429485        38.8983 
  60   0.0000       1.429485        38.8983 
  61   0.0000       1.429485        38.8983 
  62   0.0000       1.623944        44.1898 
  63   0.0000       1.623944        44.1898 
  64   0.0000       1.623944        44.1898 
  65   0.0000       1.623944        44.1898 
  66   0.0000       1.623944        44.1898 
  67   0.0000       1.623944        44.1898 
  68   0.0000       1.623944        44.1898 
  69   0.0000       2.722019        74.0699 
  70   0.0000       2.933480        79.8240 
  71   0.0000       2.933480        79.8240 
  72   0.0000       2.933480        79.8240 
  73   0.0000       2.933480        79.8240 
  74   0.0000       2.933480        79.8240 
  75   0.0000       3.588384        97.6449 
  76   0.0000       3.588384        97.6449 
  77   0.0000       3.588384        97.6449 
  78   0.0000       4.471754       121.6826 
  79   0.0000       4.471754       121.6826 
  80   0.0000       4.471754       121.6826 
  81   0.0000       4.471754       121.6826 
  82   0.0000       4.471754       121.6826 
  83   0.0000       4.471754       121.6826 
  84   0.0000       4.471754       121.6826 
  85   0.0000       5.028212       136.8246 
  86   0.0000       5.028212       136.8246 
  87   0.0000       5.028212       136.8246 
  88   0.0000       5.028212       136.8246 
  89   0.0000       5.028212       136.8246 
  90   0.0000       5.028212       136.8246 
  91   0.0000       5.028212       136.8246 
  92   0.0000       5.028212       136.8246 
  93   0.0000       5.028212       136.8246 
  94   0.0000       6.792123       184.8231 
  95   0.0000       6.792123       184.8231 
  96   0.0000       6.792123       184.8231 
  97   0.0000       6.792123       184.8231 
  98   0.0000       6.792123       184.8231 
  99   0.0000       7.389757       201.0855 
 100   0.0000       8.808179       239.6827 
 101   0.0000       8.808179       239.6827 
 102   0.0000       8.808179       239.6827 
 103   0.0000      11.167340       303.8788 
 104   0.0000      11.167340       303.8788 
 105   0.0000      11.167340       303.8788 
 106   0.0000      11.167340       303.8788 
 107   0.0000      11.167340       303.8788 
 108   0.0000      11.167340       303.8788 
 109   0.0000      11.167340       303.8788 
 110   0.0000      11.447432       311.5005 
 111   0.0000      11.447432       311.5005 
 112   0.0000      11.447432       311.5005 
 113   0.0000      11.447432       311.5005 
 114   0.0000      11.447432       311.5005 
 115   0.0000      11.447432       311.5005 
 116   0.0000      11.447432       311.5005 
 117   0.0000      11.447432       311.5005 
 118   0.0000      11.447432       311.5005 
 119   0.0000      11.447432       311.5005 
 120   0.0000      11.447432       311.5005 
 121   0.0000      14.300936       389.1483 
 122   0.0000      14.300936       389.1483 
 123   0.0000      14.300936       389.1483 
 124   0.0000      14.300936       389.1483 
 125   0.0000      14.300936       389.1483 
 126   0.0000      14.300936       389.1483 
 127   0.0000      14.300936       389.1483 
 128   0.0000      14.300936       389.1483 
 129   0.0000      14.300936       389.1483 
 130   0.0000      16.730541       455.2612 
 131   0.0000      16.730541       455.2612 
 132   0.0000      16.730541       455.2612 
 133   0.0000      16.730541       455.2612 
 134   0.0000      16.730541       455.2612 
 135   0.0000      20.677536       562.6644 
 136   0.0000      25.720608       699.8933 
 137   0.0000      25.720608       699.8933 
 138   0.0000      25.720608       699.8933 
 139   0.0000      47.570203      1294.4510 
 140   0.0000      47.570203      1294.4510 
 141   0.0000      47.570203      1294.4510 
 142   0.0000      47.570203      1294.4510 
 143   0.0000      47.570203      1294.4510 
 144   0.0000     100.608553      2737.6979 

                    ********************************
                    * MULLIKEN POPULATION ANALYSIS *
                    ********************************

--------------------------------------------
MULLIKEN ATOMIC CHARGES AND SPIN POPULATIONS
--------------------------------------------
   0 N :   -0.000000    3.000000
Sum of atomic charges         :   -0.0000000
Sum of atomic spin populations:    3.0000000

-----------------------------------------------------
MULLIKEN REDUCED ORBITAL CHARGES AND SPIN POPULATIONS
-----------------------------------------------------
CHARGE
  0 N s       :     4.000000  s :     4.000000
      pz      :     1.000000  p :     3.000000
      px      :     1.000000
      py      :     1.000000
      dz2     :     0.000000  d :     0.000000
      dxz     :     0.000000
      dyz     :     0.000000
      dx2y2   :     0.000000
      dxy     :     0.000000
      f0      :     0.000000  f :     0.000000
      f+1     :     0.000000
      f-1     :     0.000000
      f+2     :     0.000000
      f-2     :     0.000000
      f+3     :     0.000000
      f-3     :     0.000000
      g0      :     0.000000  g :     0.000000
      g+1     :     0.000000
      g-1     :     0.000000
      g+2     :     0.000000
      g-2     :     0.000000
      g+3     :     0.000000
      g-3     :     0.000000
      g+4     :     0.000000
      g-4     :     0.000000
      h0      :     0.000000  h :     0.000000
      h+1     :     0.000000
      h-1     :     0.000000
      h+2     :     0.000000
      h-2     :     0.000000
      h+3     :     0.000000
      h-3     :     0.000000
      h+4     :     0.000000
      h-4     :     0.000000
      h+5     :     0.000000
      h-5     :     0.000000

SPIN
  0 N s       :    -0.000000  s :    -0.000000
      pz      :     1.000000  p :     3.000000
      px      :     1.000000
      py      :     1.000000
      dz2     :     0.000000  d :     0.000000
      dxz     :     0.000000
      dyz     :     0.000000
      dx2y2   :     0.000000
      dxy     :     0.000000
      f0      :     0.000000  f :     0.000000
      f+1     :     0.000000
      f-1     :     0.000000
      f+2     :     0.000000
      f-2     :     0.000000
      f+3     :     0.000000
      f-3     :     0.000000
      g0      :     0.000000  g :    -0.000000
      g+1     :     0.000000
      g-1     :    -0.000000
      g+2     :    -0.000000
      g-2     :    -0.000000
      g+3     :     0.000000
      g-3     :    -0.000000
      g+4     :     0.000000
      g-4     :     0.000000
      h0      :     0.000000  h :     0.000000
      h+1     :     0.000000
      h-1     :     0.000000
      h+2     :     0.000000
      h-2     :    -0.000000
      h+3     :     0.000000
      h-3     :     0.000000
      h+4     :     0.000000
      h-4     :     0.000000
      h+5     :     0.000000
      h-5     :     0.000000


                     *******************************
                     * LOEWDIN POPULATION ANALYSIS *
                     *******************************

-------------------------------------------
LOEWDIN ATOMIC CHARGES AND SPIN POPULATIONS
-------------------------------------------
   0 N :   -0.000000    3.000000

----------------------------------------------------
LOEWDIN REDUCED ORBITAL CHARGES AND SPIN POPULATIONS
----------------------------------------------------
CHARGE
  0 N s       :     4.000000  s :     4.000000
      pz      :     1.000000  p :     3.000000
      px      :     1.000000
      py      :     1.000000
      dz2     :     0.000000  d :     0.000000
      dxz     :     0.000000
      dyz     :     0.000000
      dx2y2   :     0.000000
      dxy     :     0.000000
      f0      :     0.000000  f :     0.000000
      f+1     :     0.000000
      f-1     :     0.000000
      f+2     :     0.000000
      f-2     :     0.000000
      f+3     :     0.000000
      f-3     :     0.000000
      g0      :     0.000000  g :     0.000000
      g+1     :     0.000000
      g-1     :     0.000000
      g+2     :     0.000000
      g-2     :     0.000000
      g+3     :     0.000000
      g-3     :     0.000000
      g+4     :     0.000000
      g-4     :     0.000000
      h0      :     0.000000  h :     0.000000
      h+1     :     0.000000
      h-1     :     0.000000
      h+2     :     0.000000
      h-2     :     0.000000
      h+3     :     0.000000
      h-3     :     0.000000
      h+4     :     0.000000
      h-4     :     0.000000
      h+5     :     0.000000
      h-5     :     0.000000

SPIN
  0 N s       :    -0.000000  s :    -0.000000
      pz      :     1.000000  p :     3.000000
      px      :     1.000000
      py      :     1.000000
      dz2     :     0.000000  d :     0.000000
      dxz     :     0.000000
      dyz     :     0.000000
      dx2y2   :     0.000000
      dxy     :     0.000000
      f0      :     0.000000  f :     0.000000
      f+1     :     0.000000
      f-1     :     0.000000
      f+2     :     0.000000
      f-2     :     0.000000
      f+3     :     0.000000
      f-3     :     0.000000
      g0      :     0.000000  g :    -0.000000
      g+1     :     0.000000
      g-1     :    -0.000000
      g+2     :    -0.000000
      g-2     :    -0.000000
      g+3     :     0.000000
      g-3     :    -0.000000
      g+4     :     0.000000
      g-4     :     0.000000
      h0      :     0.000000  h :     0.000000
      h+1     :     0.000000
      h-1     :     0.000000
      h+2     :     0.000000
      h-2     :    -0.000000
      h+3     :     0.000000
      h-3     :     0.000000
      h+4     :     0.000000
      h-4     :     0.000000
      h+5     :     0.000000
      h-5     :     0.000000


                      *****************************
                      * MAYER POPULATION ANALYSIS *
                      *****************************

  NA   - Mulliken gross atomic population
  ZA   - Total nuclear charge
  QA   - Mulliken gross atomic charge
  VA   - Mayer's total valence
  BVA  - Mayer's bonded valence
  FA   - Mayer's free valence

  ATOM       NA         ZA         QA         VA         BVA        FA
  0 N      7.0000     7.0000    -0.0000     3.0050     0.0000     3.0050

  Mayer bond orders larger than 0.1


-------
TIMINGS
-------

Total SCF time: 0 days 0 hours 0 min 14 sec 

Total time                  ....      14.578 sec
Sum of individual times     ....      14.229 sec  ( 97.6%)

Fock matrix formation       ....      12.779 sec  ( 87.7%)
  XC integration            ....       7.394 sec  ( 57.9% of F)
    Basis function eval.    ....       0.890 sec  ( 12.0% of XC)
    Density eval.           ....       1.437 sec  ( 19.4% of XC)
    XC-Functional eval.     ....       0.284 sec  (  3.8% of XC)
    XC-Potential eval.      ....       4.562 sec  ( 61.7% of XC)
Diagonalization             ....       0.096 sec  (  0.7%)
Density matrix formation    ....       0.003 sec  (  0.0%)
Population analysis         ....       0.024 sec  (  0.2%)
Initial guess               ....       0.502 sec  (  3.4%)
Orbital Transformation      ....       0.000 sec  (  0.0%)
Orbital Orthonormalization  ....       0.000 sec  (  0.0%)
DIIS solution               ....       0.093 sec  (  0.6%)
Grid generation             ....       0.732 sec  (  5.0%)

-------------------------   --------------------
FINAL SINGLE POINT ENERGY       -54.535744720782
-------------------------   --------------------


                            ***************************************
                            *     ORCA property calculations      *
                            ***************************************

                                    ---------------------
                                    Active property flags
                                    ---------------------
   (+) Dipole Moment
   (+) Polarizability


------------------------------------------------------------------------------
                       ORCA ELECTRIC PROPERTIES CALCULATION
------------------------------------------------------------------------------

Dipole Moment Calculation                       ... on
Quadrupole Moment Calculation                   ... off
Polarizability Calculation                      ... Analytic (CP-SCF)
GBWName                                         ... n_pbe.gbw
Electron density file                           ... n_pbe.scfp.tmp
The origin for moment calculation is the CENTER OF MASS  = ( 0.000000,  0.000000  0.000000)

-------------
DIPOLE MOMENT
-------------
                                X             Y             Z
Electronic contribution:      0.00000       0.00000       0.00000
Nuclear contribution   :      0.00000       0.00000       0.00000
                        -----------------------------------------
Total Dipole Moment    :      0.00000       0.00000       0.00000
                        -----------------------------------------
Magnitude (a.u.)       :      0.00000
Magnitude (Debye)      :      0.00000



--------------------
Rotational spectrum 
--------------------
 
Rotational constants in cm-1:     0.000000     0.000000     0.000000 
Rotational constants in MHz :     0.000000     0.000000     0.000000 

 Dipole components along the rotational axes: 
x,y,z [a.u.] :     0.000000     0.000000     0.000000 
x,y,z [Debye]:     0.000000     0.000000     0.000000 

 
Transforming and storing MO dipole integrals   ... done

                ... starting polarizability calculation

Opening the Dipole integral file               ... (n_pbe.dmo.tmp) done
Reading Dipole-MO integrals                    ... done
Solving CP-SCF equations                       ... 
------------------------------------------------------------------------------
                           ORCA CP-SCF CALCULATION
------------------------------------------------------------------------------

Input orbitals are from        ... n_pbe.gbw
Input Perturbation             ... n_pbe.cpv.tmp
Wavefunction output            ... n_pbe.cpu.tmp
Perturbation mode              ... Real perturbation (singlet)
Solver                         ... POPLE
Max. number of iterations      ... 200
Convergence tolerance          ... 1.000e-06
Integral handling              ... Direct
Number of perturbations        ... 3
Number of operators            ... 2
Orbital ranges used for CP-SCF:
 Operator 0:  Orbitals   0...  4  to   5...144
 Operator 1:  Orbitals   0...  1  to   2...144
DFT calculation                         ... on
Exchange functional (SCF)               ... PBE
Exchange functional (CP-SCF)            ... PBE
   PBE kappa parameter  XKappa (SCF)    ...  0.804000
   PBE kappa parameter  XKappa (CP-SCF) ...  0.804000
   PBE mue parameter   XMuePBE (SCF)    ...  0.219520
   PBE mue parameter   XMuePBE (CP-SCF) ...  0.219520
Correlation functional (SCF)            ... PBE
Correlation functional (CP-SCF)         ... PBE
   PBE beta parameter CBetaPBE (SCF)    ...  0.066725
   PBE beta parameter CBetaPBE (CP-SCF) ...  0.066725
 LDA part of GGA corr.  LDAOpt (SCF)    ... PW91-LDA
 LDA part of GGA corr.  LDAOpt (CP-SCF) ... PW91-LDA
Variables per vector in CP-SCF ... 986
Number of vectors sought       ... 3
Recalculating density on grid  ... done
Calculating the xc-kernel      ... done
     CP-SCF ITERATION   0: 
     CP-SCF ITERATION   1:      0.005686799579
     CP-SCF ITERATION   2:      0.000096801274
     CP-SCF ITERATION   3:      0.000000146883
done
Reading CP-SCF coefficients                    ... done
Doing the polarizability tensor   ... done
Cleaning up                                    ... done

-------------------------
THE POLARIZABILITY TENSOR
-------------------------

The raw cartesian tensor (atomic units):
    8.34657     -0.00000      0.00000  
   -0.00000      8.34657     -0.00000  
    0.00000     -0.00000      8.34657  
diagonalized tensor: 
    8.34657      8.34657      8.34657  

   -0.00602      0.99456      0.10401  
    0.82631      0.06353     -0.55963  
    0.56319     -0.08258      0.82219  

Isotropic polarizability :   8.34657


Timings for individual modules:

Sum of individual times         ...       39.351 sec (=   0.656 min)
GTO integral calculation        ...        0.614 sec (=   0.010 min)   1.6 %
SCF iterations                  ...       14.608 sec (=   0.243 min)  37.1 %
Solution of CP-SCF eqns.        ...       24.130 sec (=   0.402 min)  61.3 %
                             ****ORCA TERMINATED NORMALLY****
TOTAL RUN TIME: 0 days 0 hours 0 minutes 40 seconds 450 msec
