
                                 *****************
                                 * O   R   C   A *
                                 *****************

           --- An Ab Initio, DFT and Semiempirical electronic structure package ---

                  #######################################################
                  #                        -***-                        #
                  #          Department of theory and spectroscopy      #
                  #               Directorship: Frank Neese             #
                  #        Max Planck Institute fuer Kohlenforschung    #
                  #                Kaiser Wilhelm Platz 1               #
                  #                 D-45470 Muelheim/Ruhr               #
                  #                      Germany                        #
                  #                                                     #
                  #                  All rights reserved                #
                  #                        -***-                        #
                  #######################################################


                         Program Version 4.1.2  - RELEASE  -


 With contributions from (in alphabetic order):
   Daniel Aravena         : Magnetic Properties
   Michael Atanasov       : Ab Initio Ligand Field Theory
   Alexander A. Auer      : GIAO ZORA
   Ute Becker             : Parallelization
   Giovanni Bistoni       : ED, Open-shell LED
   Martin Brehm           : Molecular dynamics
   Dmytro Bykov           : SCF Hessian
   Vijay G. Chilkuri      : MRCI spin determinant printing
   Dipayan Datta          : RHF DLPNO-CCSD density
   Achintya Kumar Dutta   : EOM-CC, STEOM-CC
   Dmitry Ganyushin       : Spin-Orbit,Spin-Spin,Magnetic field MRCI
   Miquel Garcia          : C-PCM Hessian
   Yang Guo               : DLPNO-NEVPT2, CIM, IAO-localization
   Andreas Hansen         : Spin unrestricted coupled pair/coupled cluster methods
   Benjamin Helmich-Paris : CASSCF linear response (MC-RPA)
   Lee Huntington         : MR-EOM, pCC
   Robert Izsak           : Overlap fitted RIJCOSX, COSX-SCS-MP3, EOM
   Christian Kollmar      : KDIIS, OOCD, Brueckner-CCSD(T), CCSD density
   Simone Kossmann        : Meta GGA functionals, TD-DFT gradient, OOMP2, MP2 Hessian
   Martin Krupicka        : AUTO-CI
   Lucas Lang             : DCDCAS
   Dagmar Lenk            : GEPOL surface, SMD
   Dimitrios Liakos       : Extrapolation schemes; parallel MDCI
   Dimitrios Manganas     : ROCIS; embedding schemes
   Dimitrios Pantazis     : SARC Basis sets
   Taras Petrenko         : DFT Hessian,TD-DFT gradient, ASA, ECA, R-Raman, ABS, FL, XAS/XES, NRVS
   Peter Pinski           : DLPNO-MP2, DLPNO-MP2 Gradient
   Christoph Reimann      : Effective Core Potentials
   Marius Retegan         : Local ZFS, SOC
   Christoph Riplinger    : Optimizer, TS searches, QM/MM, DLPNO-CCSD(T), (RO)-DLPNO pert. Triples
   Tobias Risthaus        : Range-separated hybrids, TD-DFT gradient, RPA, STAB
   Michael Roemelt        : Restricted open shell CIS
   Masaaki Saitow         : Open-shell DLPNO
   Barbara Sandhoefer     : DKH picture change effects
   Avijit Sen             : IP-ROCIS
   Kantharuban Sivalingam : CASSCF convergence, NEVPT2, FIC-MRCI
   Bernardo de Souza      : ESD, SOC TD-DFT
   Georgi Stoychev        : AutoAux, RI-MP2 NMR
   Willem Van den Heuvel  : Paramagnetic NMR
   Boris Wezisla          : Elementary symmetry handling
   Frank Wennmohs         : Technical directorship


 We gratefully acknowledge several colleagues who have allowed us to
 interface, adapt or use parts of their codes:
   Stefan Grimme, W. Hujo, H. Kruse,             : VdW corrections, initial TS optimization,
                  C. Bannwarth                     DFT functionals, gCP, sTDA/sTD-DF
   Ed Valeev                                     : LibInt (2-el integral package), F12 methods
   Garnet Chan, S. Sharma, J. Yang, R. Olivares  : DMRG
   Ulf Ekstrom                                   : XCFun DFT Library
   Mihaly Kallay                                 : mrcc  (arbitrary order and MRCC methods)
   Andreas Klamt, Michael Diedenhofen            : otool_cosmo (COSMO solvation model)
   Jiri Pittner, Ondrej Demel                    : Mk-CCSD
   Frank Weinhold                                : gennbo (NPA and NBO analysis)
   Christopher J. Cramer and Donald G. Truhlar   : smd solvation model
   Lars Goerigk                                  : TD-DFT with DH, B97 family of functionals
   V. Asgeirsson, H. Jonsson                     : NEB implementation
   FAccTs GmbH                                   : IRC, NEB, NEB-TS, Multilevel


 Your calculation uses the libint2 library for the computation of 2-el integrals
 For citations please refer to: http://libint.valeyev.net

 This ORCA versions uses:
   CBLAS   interface :  Fast vector & matrix operations
   LAPACKE interface :  Fast linear algebra routines
   SCALAPACK package :  Parallel linear algebra routines


----- Orbital basis set information -----
Your calculation utilizes the basis: aug-pc-4
   H, C-F              : F. Jensen, J. Chem. Phys. 115, 9113 (2001).
                         F. Jensen, J. Chem. Phys. 116, 7372 (2002).
                         F. Jensen, J. Chem. Phys. 117, 9234 (2002).
   Si-Cl               : F. Jensen, T. Helgaker, J. Chem. Phys. 121, 3463 (2004).
   He-B, Ne-Mg, Al, Ar : F. Jensen, J. Phys. Chem. A 111, 11198 (2007).
   K, Ca, Ga-Kr        : F. Jensen, J. Chem. Phys. 136, 094110 (2012).
   Sc-Zn               : F. Jensen, J. Chem. Phys. 138, 014107 (2013).

================================================================================
                                        WARNINGS
                       Please study these warnings very carefully!
================================================================================


INFO   : the flag for use of LIBINT has been found!

================================================================================
                                       INPUT FILE
================================================================================
NAME = na2_pbe.inp
|  1> !uks pbe nori aug-pc-4 grid7 nofinalgrid verytightscf
|  2> 
|  3> %maxcore 1500
|  4> 
|  5> %pal nprocs 1 end
|  6> 
|  7> %scf
|  8> 	maxiter 200
|  9> end
| 10> %elprop
| 11> 	dipole true
| 12> 	 polar 1
| 13> 	 maxiter 200
| 14> end
| 15> 
| 16> * xyz 0 1
| 17> Na 0.0000 0.0000 0.0000
| 18> Na 0.0000 0.0000 3.0789
| 19> *
| 20> 
| 21>                          ****END OF INPUT****
================================================================================

                       ****************************
                       * Single Point Calculation *
                       ****************************

---------------------------------
CARTESIAN COORDINATES (ANGSTROEM)
---------------------------------
  Na     0.000000    0.000000    0.000000
  Na     0.000000    0.000000    3.078900

----------------------------
CARTESIAN COORDINATES (A.U.)
----------------------------
  NO LB      ZA    FRAG     MASS         X           Y           Z
   0 Na   11.0000    0    22.990    0.000000    0.000000    0.000000
   1 Na   11.0000    0    22.990    0.000000    0.000000    5.818278

--------------------------------
INTERNAL COORDINATES (ANGSTROEM)
--------------------------------
 Na     0   0   0     0.000000000000     0.00000000     0.00000000
 Na     1   0   0     3.078900000000     0.00000000     0.00000000

---------------------------
INTERNAL COORDINATES (A.U.)
---------------------------
 Na     0   0   0     0.000000000000     0.00000000     0.00000000
 Na     1   0   0     5.818277793730     0.00000000     0.00000000

---------------------
BASIS SET INFORMATION
---------------------
There are 1 groups of distinct atoms

 Group   1 Type Na  : 44s16p4d3f2g contracted to 8s6p4d3f2g pattern {15111311111/1111111/1111/111/11}

Atom   0Na   basis set group =>   1
Atom   1Na   basis set group =>   1
------------------------------------------------------------------------------
                           ORCA GTO INTEGRAL CALCULATION
------------------------------------------------------------------------------

                         BASIS SET STATISTICS AND STARTUP INFO

 # of primitive gaussian shells          ...  138
 # of primitive gaussian functions       ...  302
 # of contracted shells                  ...   46
 # of contracted basis functions         ...  170
 Highest angular momentum                ...    4
 Maximum contraction depth               ...   15
 Integral package used                   ... LIBINT
 Integral threshhold            Thresh   ...  1.000e-12
 Primitive cut-off              TCut     ...  1.000e-14


------------------------------ INTEGRAL EVALUATION ----------------------------


 * One electron integrals 
 Pre-screening matrix                    ... done
 Shell pair data                         ... done (   0.001 sec)

-------------------------------------------------------------------------------
                                 ORCA SCF
-------------------------------------------------------------------------------

------------
SCF SETTINGS
------------
Hamiltonian:
 Density Functional     Method          .... DFT(GTOs)
 Exchange Functional    Exchange        .... PBE
   PBE kappa parameter   XKappa         ....  0.804000
   PBE mue parameter    XMuePBE         ....  0.219520
 Correlation Functional Correlation     .... PBE
   PBE beta parameter  CBetaPBE         ....  0.066725
 LDA part of GGA corr.  LDAOpt          .... PW91-LDA
 Gradients option       PostSCFGGA      .... off
   Density functional embedding theory  .... OFF
   NL short-range parameter             ....  6.400000


General Settings:
 Integral files         IntName         .... na2_pbe
 Hartree-Fock type      HFTyp           .... UHF
 Total Charge           Charge          ....    0
 Multiplicity           Mult            ....    1
 Number of Electrons    NEL             ....   22
 Basis Dimension        Dim             ....  170
 Nuclear Repulsion      ENuc            ....     20.7965319446 Eh

Convergence Acceleration:
 DIIS                   CNVDIIS         .... on
   Start iteration      DIISMaxIt       ....    12
   Startup error        DIISStart       ....  0.200000
   # of expansion vecs  DIISMaxEq       ....     5
   Bias factor          DIISBfac        ....   1.050
   Max. coefficient     DIISMaxC        ....  10.000
 Newton-Raphson         CNVNR           .... off
 SOSCF                  CNVSOSCF        .... off
 Level Shifting         CNVShift        .... on
   Level shift para.    LevelShift      ....    0.2500
   Turn off err/grad.   ShiftErr        ....    0.0010
 Zerner damping         CNVZerner       .... off
 Static damping         CNVDamp         .... on
   Fraction old density DampFac         ....    0.7000
   Max. Damping (<1)    DampMax         ....    0.9800
   Min. Damping (>=0)   DampMin         ....    0.0000
   Turn off err/grad.   DampErr         ....    0.1000
 Fernandez-Rico         CNVRico         .... off

SCF Procedure:
 Maximum # iterations   MaxIter         ....   200
 SCF integral mode      SCFMode         .... Direct
   Integral package                     .... LIBINT
 Reset frequency        DirectResetFreq ....    20
 Integral Threshold     Thresh          ....  1.000e-12 Eh
 Primitive CutOff       TCut            ....  1.000e-14 Eh

Convergence Tolerance:
 Convergence Check Mode ConvCheckMode   .... Total+1el-Energy
 Convergence forced     ConvForced      .... 0
 Energy Change          TolE            ....  1.000e-09 Eh
 1-El. energy change                    ....  1.000e-06 Eh
 DIIS Error             TolErr          ....  1.000e-08


Diagonalization of the overlap matrix:
Smallest eigenvalue                        ... 1.159e-05
Time for diagonalization                   ...    0.091 sec
Threshold for overlap eigenvalues          ... 1.000e-08
Number of eigenvalues below threshold      ... 0
Time for construction of square roots      ...    0.005 sec
Total time needed                          ...    0.096 sec

-------------------
DFT GRID GENERATION
-------------------

General Integration Accuracy     IntAcc      ...  5.670
Radial Grid Type                 RadialGrid  ... Gauss-Chebyshev
Angular Grid (max. acc.)         AngularGrid ... Lebedev-770
Angular grid pruning method      GridPruning ... 3 (G Style)
Weight generation scheme         WeightScheme... Becke
Basis function cutoff            BFCut       ...    1.0000e-12
Integration weight cutoff        WCut        ...    1.0000e-14
Grids for H and He will be reduced by one unit

# of grid points (after initial pruning)     ...  52512 (   0.0 sec)
# of grid points (after weights+screening)   ...  52368 (   0.0 sec)
nearest neighbour list constructed           ...    0.0 sec
Grid point re-assignment to atoms done       ...    0.0 sec
Grid point division into batches done        ...    1.1 sec
Reduced shell lists constructed in    1.4 sec

Total number of grid points                  ...    52368
Total number of batches                      ...      820
Average number of points per batch           ...       63
Average number of grid points per atom       ...    26184
Average number of shells per batch           ...    37.61 (81.76%)
Average number of basis functions per batch  ...   138.47 (81.46%)
Average number of large shells per batch     ...    34.49 (91.70%)
Average number of large basis fcns per batch ...   126.93 (91.67%)
Maximum spatial batch extension              ...  20.73, 20.73, 29.56 au
Average spatial batch extension              ...   3.91,  3.86,  3.59 au

Time for grid setup =    1.440 sec

------------------------------
INITIAL GUESS: MODEL POTENTIAL
------------------------------
Loading Hartree-Fock densities                     ... done
Calculating cut-offs                               ... done
Setting up the integral package                    ... done
Initializing the effective Hamiltonian             ... done
Starting the Coulomb interaction                   ... done (   0.0 sec)
Reading the grid                                   ... done
Mapping shells                                     ... done
Starting the XC term evaluation                    ... done (   0.9 sec)
  promolecular density results
     # of electrons  =     21.999999739
     EX              =    -27.893263948
     EC              =     -0.758431647
     EX+EC           =    -28.651695595
Transforming the Hamiltonian                       ... done (   0.0 sec)
Diagonalizing the Hamiltonian                      ... done (   0.0 sec)
Back transforming the eigenvectors                 ... done (   0.0 sec)
Now organizing SCF variables                       ... done
                      ------------------
                      INITIAL GUESS DONE (   2.4 sec)
                      ------------------
--------------
SCF ITERATIONS
--------------
ITER       Energy         Delta-E        Max-DP      RMS-DP      [F,P]     Damp
               ***  Starting incremental Fock matrix formation  ***
  0   -324.3691228017   0.000000000000 0.00841339  0.00020050  0.0309309 0.7000
  1   -324.3702944803  -0.001171678609 0.00833541  0.00019148  0.0181348 0.7000
                               ***Turning on DIIS***
  2   -324.3711888934  -0.000894413099 0.02396282  0.00048744  0.0128584 0.0000
  3   -324.3726591308  -0.001470237477 0.00462232  0.00009305  0.0099662 0.0000
  4   -324.3727706467  -0.000111515896 0.00206229  0.00005341  0.0013641 0.0000
  5   -324.3727821202  -0.000011473476 0.00435730  0.00009038  0.0006521 0.0000
  6   -324.3727869833  -0.000004863109 0.00053091  0.00001302  0.0001471 0.0000
  7   -324.3727870396  -0.000000056282 0.00009064  0.00000252  0.0000829 0.0000
  8   -324.3727870561  -0.000000016515 0.00003157  0.00000062  0.0000051 0.0000
  9   -324.3727870563  -0.000000000186 0.00000454  0.00000010  0.0000011 0.0000
                 **** Energy Check signals convergence ****

               *****************************************************
               *                     SUCCESS                       *
               *           SCF CONVERGED AFTER  10 CYCLES          *
               *****************************************************


----------------
TOTAL SCF ENERGY
----------------

Total Energy       :         -324.37278706 Eh           -8826.63227 eV

Components:
Nuclear Repulsion  :           20.79653194 Eh             565.90240 eV
Electronic Energy  :         -345.16931900 Eh           -9392.53468 eV
One Electron Energy:         -497.57818209 Eh          -13539.79068 eV
Two Electron Energy:          152.40886309 Eh            4147.25601 eV

Virial components:
Potential Energy   :         -648.40258867 Eh          -17643.93144 eV
Kinetic Energy     :          324.02980161 Eh            8817.29916 eV
Virial Ratio       :            2.00105850


DFT components:
N(Alpha)           :       10.999999928088 electrons
N(Beta)            :       10.999999928088 electrons
N(Total)           :       21.999999856175 electrons
E(X)               :      -27.856749501395 Eh       
E(C)               :       -0.754560713937 Eh       
E(XC)              :      -28.611310215332 Eh       
DFET-embed. en.    :        0.000000000000 Eh       

---------------
SCF CONVERGENCE
---------------

  Last Energy change         ...   -2.1600e-12  Tolerance :   1.0000e-09
  Last MAX-Density change    ...    2.1545e-06  Tolerance :   1.0000e-08
  Last RMS-Density change    ...    4.7129e-08  Tolerance :   1.0000e-09
  Last DIIS Error            ...    1.0688e-07  Tolerance :   1.0000e-08

             **** THE GBW FILE WAS UPDATED (na2_pbe.gbw) ****
             **** DENSITY FILE WAS UPDATED (na2_pbe.scfp.tmp) ****
             **** ENERGY FILE WAS UPDATED (na2_pbe.en.tmp) ****
----------------------
UHF SPIN CONTAMINATION
----------------------

Warning: in a DFT calculation there is little theoretical justification to 
         calculate <S**2> as in Hartree-Fock theory. We will do it anyways
         but you should keep in mind that the values have only limited relevance

Expectation value of <S**2>     :     0.000000
Ideal value S*(S+1) for S=0.0   :     0.000000
Deviation                       :     0.000000

----------------
ORBITAL ENERGIES
----------------
                 SPIN UP ORBITALS
  NO   OCC          E(Eh)            E(eV) 
   0   1.0000     -37.890766     -1031.0602 
   1   1.0000     -37.890766     -1031.0602 
   2   1.0000      -2.056931       -55.9719 
   3   1.0000      -2.056786       -55.9680 
   4   1.0000      -1.033842       -28.1323 
   5   1.0000      -1.032893       -28.1065 
   6   1.0000      -1.032893       -28.1065 
   7   1.0000      -1.032658       -28.1001 
   8   1.0000      -1.032658       -28.1001 
   9   1.0000      -1.031767       -28.0758 
  10   1.0000      -0.114868        -3.1257 
  11   0.0000      -0.065306        -1.7771 
  12   0.0000      -0.035048        -0.9537 
  13   0.0000      -0.035048        -0.9537 
  14   0.0000      -0.018721        -0.5094 
  15   0.0000       0.000831         0.0226 
  16   0.0000       0.000831         0.0226 
  17   0.0000       0.001675         0.0456 
  18   0.0000       0.004012         0.1092 
  19   0.0000       0.011655         0.3172 
  20   0.0000       0.011655         0.3172 
  21   0.0000       0.014635         0.3982 
  22   0.0000       0.017281         0.4703 
  23   0.0000       0.021666         0.5896 
  24   0.0000       0.021666         0.5896 
  25   0.0000       0.022517         0.6127 
  26   0.0000       0.022517         0.6127 
  27   0.0000       0.023417         0.6372 
  28   0.0000       0.031287         0.8514 
  29   0.0000       0.038059         1.0356 
  30   0.0000       0.038059         1.0356 
  31   0.0000       0.044742         1.2175 
  32   0.0000       0.044742         1.2175 
  33   0.0000       0.045121         1.2278 
  34   0.0000       0.053818         1.4645 
  35   0.0000       0.058678         1.5967 
  36   0.0000       0.058678         1.5967 
  37   0.0000       0.065581         1.7845 
  38   0.0000       0.065581         1.7845 
  39   0.0000       0.067767         1.8440 
  40   0.0000       0.067767         1.8440 
  41   0.0000       0.071784         1.9533 
  42   0.0000       0.075093         2.0434 
  43   0.0000       0.077478         2.1083 
  44   0.0000       0.077478         2.1083 
  45   0.0000       0.085478         2.3260 
  46   0.0000       0.087951         2.3933 
  47   0.0000       0.087951         2.3933 
  48   0.0000       0.095064         2.5868 
  49   0.0000       0.095064         2.5868 
  50   0.0000       0.100672         2.7394 
  51   0.0000       0.103185         2.8078 
  52   0.0000       0.103185         2.8078 
  53   0.0000       0.107910         2.9364 
  54   0.0000       0.107910         2.9364 
  55   0.0000       0.109849         2.9891 
  56   0.0000       0.109849         2.9891 
  57   0.0000       0.121140         3.2964 
  58   0.0000       0.121140         3.2964 
  59   0.0000       0.123056         3.3485 
  60   0.0000       0.129373         3.5204 
  61   0.0000       0.129373         3.5204 
  62   0.0000       0.136534         3.7153 
  63   0.0000       0.136534         3.7153 
  64   0.0000       0.139209         3.7881 
  65   0.0000       0.139944         3.8081 
  66   0.0000       0.139944         3.8081 
  67   0.0000       0.146757         3.9935 
  68   0.0000       0.146757         3.9935 
  69   0.0000       0.152289         4.1440 
  70   0.0000       0.152289         4.1440 
  71   0.0000       0.158942         4.3250 
  72   0.0000       0.180891         4.9223 
  73   0.0000       0.181335         4.9344 
  74   0.0000       0.181335         4.9344 
  75   0.0000       0.183100         4.9824 
  76   0.0000       0.183100         4.9824 
  77   0.0000       0.188822         5.1381 
  78   0.0000       0.189402         5.1539 
  79   0.0000       0.206890         5.6298 
  80   0.0000       0.206890         5.6298 
  81   0.0000       0.245155         6.6710 
  82   0.0000       0.245155         6.6710 
  83   0.0000       0.251831         6.8527 
  84   0.0000       0.251831         6.8527 
  85   0.0000       0.313472         8.5300 
  86   0.0000       0.328746         8.9456 
  87   0.0000       0.331060         9.0086 
  88   0.0000       0.331060         9.0086 
  89   0.0000       0.344841         9.3836 
  90   0.0000       0.344841         9.3836 
  91   0.0000       0.358370         9.7517 
  92   0.0000       0.361548         9.8382 
  93   0.0000       0.416503        11.3336 
  94   0.0000       0.416503        11.3336 
  95   0.0000       0.586688        15.9646 
  96   0.0000       0.612754        16.6739 
  97   0.0000       0.644342        17.5334 
  98   0.0000       0.644342        17.5334 
  99   0.0000       0.662393        18.0246 
 100   0.0000       0.662393        18.0246 
 101   0.0000       0.691083        18.8053 
 102   0.0000       0.735504        20.0141 
 103   0.0000       0.735504        20.0141 
 104   0.0000       0.761094        20.7104 
 105   0.0000       0.761094        20.7104 
 106   0.0000       0.798710        21.7340 
 107   0.0000       0.798710        21.7340 
 108   0.0000       0.827593        22.5199 
 109   0.0000       0.827593        22.5199 
 110   0.0000       0.894360        24.3368 
 111   0.0000       0.894361        24.3368 
 112   0.0000       0.931134        25.3374 
 113   0.0000       1.042395        28.3650 
 114   0.0000       1.042395        28.3650 
 115   0.0000       1.144679        31.1483 
 116   0.0000       1.292731        35.1770 
 117   0.0000       1.292731        35.1770 
 118   0.0000       1.305063        35.5126 
 119   0.0000       1.305063        35.5126 
 120   0.0000       1.313137        35.7323 
 121   0.0000       1.324798        36.0496 
 122   0.0000       1.324798        36.0496 
 123   0.0000       1.367283        37.2057 
 124   0.0000       1.367284        37.2057 
 125   0.0000       1.371949        37.3326 
 126   0.0000       1.371950        37.3326 
 127   0.0000       1.379801        37.5463 
 128   0.0000       1.379802        37.5463 
 129   0.0000       1.397224        38.0204 
 130   0.0000       1.397224        38.0204 
 131   0.0000       1.416937        38.5568 
 132   0.0000       1.416937        38.5568 
 133   0.0000       1.423025        38.7225 
 134   0.0000       1.423025        38.7225 
 135   0.0000       1.455319        39.6013 
 136   0.0000       1.455319        39.6013 
 137   0.0000       1.512785        41.1650 
 138   0.0000       1.619289        44.0631 
 139   0.0000       1.619290        44.0631 
 140   0.0000       1.634349        44.4729 
 141   0.0000       1.643163        44.7127 
 142   0.0000       1.853519        50.4368 
 143   0.0000       1.853519        50.4368 
 144   0.0000       2.388737        65.0008 
 145   0.0000       2.871392        78.1345 
 146   0.0000       3.911397       106.4345 
 147   0.0000       3.911398       106.4345 
 148   0.0000       3.922125       106.7264 
 149   0.0000       3.922125       106.7264 
 150   0.0000       3.925957       106.8307 
 151   0.0000       3.925957       106.8307 
 152   0.0000       3.935127       107.0802 
 153   0.0000       3.935127       107.0802 
 154   0.0000       3.975627       108.1823 
 155   0.0000       3.975628       108.1823 
 156   0.0000       4.007056       109.0375 
 157   0.0000       4.132431       112.4492 
 158   0.0000       4.132431       112.4492 
 159   0.0000       4.212278       114.6219 
 160   0.0000       5.564312       151.4126 
 161   0.0000       5.564312       151.4126 
 162   0.0000       5.570108       151.5703 
 163   0.0000       5.570108       151.5704 
 164   0.0000       5.578397       151.7959 
 165   0.0000       5.578397       151.7959 
 166   0.0000       5.623185       153.0147 
 167   0.0000       5.623185       153.0147 
 168   0.0000       5.664148       154.1293 
 169   0.0000       5.676123       154.4552 

                 SPIN DOWN ORBITALS
  NO   OCC          E(Eh)            E(eV) 
   0   1.0000     -37.890766     -1031.0602 
   1   1.0000     -37.890766     -1031.0602 
   2   1.0000      -2.056931       -55.9719 
   3   1.0000      -2.056786       -55.9680 
   4   1.0000      -1.033842       -28.1323 
   5   1.0000      -1.032893       -28.1065 
   6   1.0000      -1.032893       -28.1065 
   7   1.0000      -1.032658       -28.1001 
   8   1.0000      -1.032658       -28.1001 
   9   1.0000      -1.031767       -28.0758 
  10   1.0000      -0.114868        -3.1257 
  11   0.0000      -0.065306        -1.7771 
  12   0.0000      -0.035048        -0.9537 
  13   0.0000      -0.035048        -0.9537 
  14   0.0000      -0.018721        -0.5094 
  15   0.0000       0.000831         0.0226 
  16   0.0000       0.000831         0.0226 
  17   0.0000       0.001675         0.0456 
  18   0.0000       0.004012         0.1092 
  19   0.0000       0.011655         0.3172 
  20   0.0000       0.011655         0.3172 
  21   0.0000       0.014635         0.3982 
  22   0.0000       0.017281         0.4703 
  23   0.0000       0.021666         0.5896 
  24   0.0000       0.021666         0.5896 
  25   0.0000       0.022517         0.6127 
  26   0.0000       0.022517         0.6127 
  27   0.0000       0.023417         0.6372 
  28   0.0000       0.031287         0.8514 
  29   0.0000       0.038059         1.0356 
  30   0.0000       0.038059         1.0356 
  31   0.0000       0.044742         1.2175 
  32   0.0000       0.044742         1.2175 
  33   0.0000       0.045121         1.2278 
  34   0.0000       0.053818         1.4645 
  35   0.0000       0.058678         1.5967 
  36   0.0000       0.058678         1.5967 
  37   0.0000       0.065581         1.7845 
  38   0.0000       0.065581         1.7845 
  39   0.0000       0.067767         1.8440 
  40   0.0000       0.067767         1.8440 
  41   0.0000       0.071784         1.9533 
  42   0.0000       0.075093         2.0434 
  43   0.0000       0.077478         2.1083 
  44   0.0000       0.077478         2.1083 
  45   0.0000       0.085478         2.3260 
  46   0.0000       0.087951         2.3933 
  47   0.0000       0.087951         2.3933 
  48   0.0000       0.095064         2.5868 
  49   0.0000       0.095064         2.5868 
  50   0.0000       0.100672         2.7394 
  51   0.0000       0.103185         2.8078 
  52   0.0000       0.103185         2.8078 
  53   0.0000       0.107910         2.9364 
  54   0.0000       0.107910         2.9364 
  55   0.0000       0.109849         2.9891 
  56   0.0000       0.109849         2.9891 
  57   0.0000       0.121140         3.2964 
  58   0.0000       0.121140         3.2964 
  59   0.0000       0.123056         3.3485 
  60   0.0000       0.129373         3.5204 
  61   0.0000       0.129373         3.5204 
  62   0.0000       0.136534         3.7153 
  63   0.0000       0.136534         3.7153 
  64   0.0000       0.139209         3.7881 
  65   0.0000       0.139944         3.8081 
  66   0.0000       0.139944         3.8081 
  67   0.0000       0.146757         3.9935 
  68   0.0000       0.146757         3.9935 
  69   0.0000       0.152289         4.1440 
  70   0.0000       0.152289         4.1440 
  71   0.0000       0.158942         4.3250 
  72   0.0000       0.180891         4.9223 
  73   0.0000       0.181335         4.9344 
  74   0.0000       0.181335         4.9344 
  75   0.0000       0.183100         4.9824 
  76   0.0000       0.183100         4.9824 
  77   0.0000       0.188822         5.1381 
  78   0.0000       0.189402         5.1539 
  79   0.0000       0.206890         5.6298 
  80   0.0000       0.206890         5.6298 
  81   0.0000       0.245155         6.6710 
  82   0.0000       0.245155         6.6710 
  83   0.0000       0.251831         6.8527 
  84   0.0000       0.251831         6.8527 
  85   0.0000       0.313472         8.5300 
  86   0.0000       0.328746         8.9456 
  87   0.0000       0.331060         9.0086 
  88   0.0000       0.331060         9.0086 
  89   0.0000       0.344841         9.3836 
  90   0.0000       0.344841         9.3836 
  91   0.0000       0.358370         9.7517 
  92   0.0000       0.361548         9.8382 
  93   0.0000       0.416503        11.3336 
  94   0.0000       0.416503        11.3336 
  95   0.0000       0.586688        15.9646 
  96   0.0000       0.612754        16.6739 
  97   0.0000       0.644342        17.5334 
  98   0.0000       0.644342        17.5334 
  99   0.0000       0.662393        18.0246 
 100   0.0000       0.662393        18.0246 
 101   0.0000       0.691083        18.8053 
 102   0.0000       0.735504        20.0141 
 103   0.0000       0.735504        20.0141 
 104   0.0000       0.761094        20.7104 
 105   0.0000       0.761094        20.7104 
 106   0.0000       0.798710        21.7340 
 107   0.0000       0.798710        21.7340 
 108   0.0000       0.827593        22.5199 
 109   0.0000       0.827593        22.5199 
 110   0.0000       0.894360        24.3368 
 111   0.0000       0.894361        24.3368 
 112   0.0000       0.931134        25.3374 
 113   0.0000       1.042395        28.3650 
 114   0.0000       1.042395        28.3650 
 115   0.0000       1.144679        31.1483 
 116   0.0000       1.292731        35.1770 
 117   0.0000       1.292731        35.1770 
 118   0.0000       1.305063        35.5126 
 119   0.0000       1.305063        35.5126 
 120   0.0000       1.313137        35.7323 
 121   0.0000       1.324798        36.0496 
 122   0.0000       1.324798        36.0496 
 123   0.0000       1.367283        37.2057 
 124   0.0000       1.367284        37.2057 
 125   0.0000       1.371949        37.3326 
 126   0.0000       1.371950        37.3326 
 127   0.0000       1.379801        37.5463 
 128   0.0000       1.379802        37.5463 
 129   0.0000       1.397224        38.0204 
 130   0.0000       1.397224        38.0204 
 131   0.0000       1.416937        38.5568 
 132   0.0000       1.416937        38.5568 
 133   0.0000       1.423025        38.7225 
 134   0.0000       1.423025        38.7225 
 135   0.0000       1.455319        39.6013 
 136   0.0000       1.455319        39.6013 
 137   0.0000       1.512785        41.1650 
 138   0.0000       1.619289        44.0631 
 139   0.0000       1.619290        44.0631 
 140   0.0000       1.634349        44.4729 
 141   0.0000       1.643163        44.7127 
 142   0.0000       1.853519        50.4368 
 143   0.0000       1.853519        50.4368 
 144   0.0000       2.388737        65.0008 
 145   0.0000       2.871392        78.1345 
 146   0.0000       3.911397       106.4345 
 147   0.0000       3.911398       106.4345 
 148   0.0000       3.922125       106.7264 
 149   0.0000       3.922125       106.7264 
 150   0.0000       3.925957       106.8307 
 151   0.0000       3.925957       106.8307 
 152   0.0000       3.935127       107.0802 
 153   0.0000       3.935127       107.0802 
 154   0.0000       3.975627       108.1823 
 155   0.0000       3.975628       108.1823 
 156   0.0000       4.007056       109.0375 
 157   0.0000       4.132431       112.4492 
 158   0.0000       4.132431       112.4492 
 159   0.0000       4.212278       114.6219 
 160   0.0000       5.564312       151.4126 
 161   0.0000       5.564312       151.4126 
 162   0.0000       5.570108       151.5703 
 163   0.0000       5.570108       151.5704 
 164   0.0000       5.578397       151.7959 
 165   0.0000       5.578397       151.7959 
 166   0.0000       5.623185       153.0147 
 167   0.0000       5.623185       153.0147 
 168   0.0000       5.664148       154.1293 
 169   0.0000       5.676123       154.4552 

                    ********************************
                    * MULLIKEN POPULATION ANALYSIS *
                    ********************************

--------------------------------------------
MULLIKEN ATOMIC CHARGES AND SPIN POPULATIONS
--------------------------------------------
   0 Na:    0.000025   -0.000000
   1 Na:   -0.000025    0.000000
Sum of atomic charges         :    0.0000000
Sum of atomic spin populations:    0.0000000

-----------------------------------------------------
MULLIKEN REDUCED ORBITAL CHARGES AND SPIN POPULATIONS
-----------------------------------------------------
CHARGE
  0 Nas       :     5.048923  s :     5.048923
      pz      :     1.970875  p :     5.971277
      px      :     2.000201
      py      :     2.000201
      dz2     :    -0.017155  d :    -0.017409
      dxz     :    -0.000127
      dyz     :    -0.000127
      dx2y2   :     0.000000
      dxy     :     0.000000
      f0      :    -0.002507  f :    -0.002638
      f+1     :    -0.000066
      f-1     :    -0.000066
      f+2     :    -0.000000
      f-2     :    -0.000000
      f+3     :     0.000000
      f-3     :     0.000000
      g0      :    -0.000161  g :    -0.000178
      g+1     :    -0.000009
      g-1     :    -0.000009
      g+2     :    -0.000000
      g-2     :    -0.000000
      g+3     :     0.000000
      g-3     :     0.000000
      g+4     :     0.000000
      g-4     :     0.000000
  1 Nas       :     5.048966  s :     5.048966
      pz      :     1.970881  p :     5.971283
      px      :     2.000201
      py      :     2.000201
      dz2     :    -0.017154  d :    -0.017408
      dxz     :    -0.000127
      dyz     :    -0.000127
      dx2y2   :     0.000000
      dxy     :     0.000000
      f0      :    -0.002507  f :    -0.002638
      f+1     :    -0.000066
      f-1     :    -0.000066
      f+2     :    -0.000000
      f-2     :    -0.000000
      f+3     :     0.000000
      f-3     :     0.000000
      g0      :    -0.000161  g :    -0.000178
      g+1     :    -0.000009
      g-1     :    -0.000009
      g+2     :    -0.000000
      g-2     :    -0.000000
      g+3     :     0.000000
      g-3     :     0.000000
      g+4     :     0.000000
      g-4     :     0.000000

SPIN
  0 Nas       :    -0.000000  s :    -0.000000
      pz      :    -0.000000  p :    -0.000000
      px      :    -0.000000
      py      :     0.000000
      dz2     :    -0.000000  d :    -0.000000
      dxz     :    -0.000000
      dyz     :    -0.000000
      dx2y2   :     0.000000
      dxy     :    -0.000000
      f0      :    -0.000000  f :    -0.000000
      f+1     :    -0.000000
      f-1     :    -0.000000
      f+2     :    -0.000000
      f-2     :    -0.000000
      f+3     :    -0.000000
      f-3     :     0.000000
      g0      :    -0.000000  g :    -0.000000
      g+1     :    -0.000000
      g-1     :    -0.000000
      g+2     :    -0.000000
      g-2     :    -0.000000
      g+3     :    -0.000000
      g-3     :     0.000000
      g+4     :     0.000000
      g-4     :    -0.000000
  1 Nas       :     0.000000  s :     0.000000
      pz      :     0.000000  p :     0.000000
      px      :     0.000000
      py      :     0.000000
      dz2     :     0.000000  d :     0.000000
      dxz     :     0.000000
      dyz     :     0.000000
      dx2y2   :     0.000000
      dxy     :     0.000000
      f0      :     0.000000  f :     0.000000
      f+1     :     0.000000
      f-1     :    -0.000000
      f+2     :    -0.000000
      f-2     :     0.000000
      f+3     :     0.000000
      f-3     :     0.000000
      g0      :     0.000000  g :     0.000000
      g+1     :    -0.000000
      g-1     :     0.000000
      g+2     :    -0.000000
      g-2     :     0.000000
      g+3     :     0.000000
      g-3     :     0.000000
      g+4     :    -0.000000
      g-4     :    -0.000000


                     *******************************
                     * LOEWDIN POPULATION ANALYSIS *
                     *******************************

-------------------------------------------
LOEWDIN ATOMIC CHARGES AND SPIN POPULATIONS
-------------------------------------------
   0 Na:    0.000000   -0.000000
   1 Na:   -0.000000    0.000000

----------------------------------------------------
LOEWDIN REDUCED ORBITAL CHARGES AND SPIN POPULATIONS
----------------------------------------------------
CHARGE
  0 Nas       :     4.815253  s :     4.815253
      pz      :     2.132045  p :     6.130294
      px      :     1.999125
      py      :     1.999125
      dz2     :     0.033066  d :     0.033326
      dxz     :     0.000130
      dyz     :     0.000130
      dx2y2   :     0.000000
      dxy     :     0.000000
      f0      :     0.011705  f :     0.012213
      f+1     :     0.000254
      f-1     :     0.000254
      f+2     :     0.000000
      f-2     :     0.000000
      f+3     :     0.000000
      f-3     :     0.000000
      g0      :     0.007932  g :     0.008914
      g+1     :     0.000491
      g-1     :     0.000491
      g+2     :     0.000000
      g-2     :     0.000000
      g+3     :     0.000000
      g-3     :     0.000000
      g+4     :     0.000000
      g-4     :     0.000000
  1 Nas       :     4.815253  s :     4.815253
      pz      :     2.132045  p :     6.130294
      px      :     1.999125
      py      :     1.999125
      dz2     :     0.033066  d :     0.033326
      dxz     :     0.000130
      dyz     :     0.000130
      dx2y2   :     0.000000
      dxy     :     0.000000
      f0      :     0.011705  f :     0.012213
      f+1     :     0.000254
      f-1     :     0.000254
      f+2     :     0.000000
      f-2     :     0.000000
      f+3     :     0.000000
      f-3     :     0.000000
      g0      :     0.007932  g :     0.008914
      g+1     :     0.000491
      g-1     :     0.000491
      g+2     :     0.000000
      g-2     :     0.000000
      g+3     :     0.000000
      g-3     :     0.000000
      g+4     :     0.000000
      g-4     :     0.000000

SPIN
  0 Nas       :    -0.000000  s :    -0.000000
      pz      :    -0.000000  p :     0.000000
      px      :    -0.000000
      py      :     0.000000
      dz2     :    -0.000000  d :    -0.000000
      dxz     :    -0.000000
      dyz     :    -0.000000
      dx2y2   :    -0.000000
      dxy     :    -0.000000
      f0      :     0.000000  f :     0.000000
      f+1     :    -0.000000
      f-1     :    -0.000000
      f+2     :    -0.000000
      f-2     :    -0.000000
      f+3     :    -0.000000
      f-3     :     0.000000
      g0      :     0.000000  g :     0.000000
      g+1     :     0.000000
      g-1     :     0.000000
      g+2     :     0.000000
      g-2     :    -0.000000
      g+3     :    -0.000000
      g-3     :     0.000000
      g+4     :     0.000000
      g-4     :    -0.000000
  1 Nas       :     0.000000  s :     0.000000
      pz      :     0.000000  p :     0.000000
      px      :     0.000000
      py      :     0.000000
      dz2     :     0.000000  d :     0.000000
      dxz     :     0.000000
      dyz     :     0.000000
      dx2y2   :    -0.000000
      dxy     :    -0.000000
      f0      :    -0.000000  f :    -0.000000
      f+1     :     0.000000
      f-1     :    -0.000000
      f+2     :    -0.000000
      f-2     :     0.000000
      f+3     :     0.000000
      f-3     :     0.000000
      g0      :    -0.000000  g :    -0.000000
      g+1     :    -0.000000
      g-1     :     0.000000
      g+2     :     0.000000
      g-2     :     0.000000
      g+3     :     0.000000
      g-3     :     0.000000
      g+4     :    -0.000000
      g-4     :    -0.000000


                      *****************************
                      * MAYER POPULATION ANALYSIS *
                      *****************************

  NA   - Mulliken gross atomic population
  ZA   - Total nuclear charge
  QA   - Mulliken gross atomic charge
  VA   - Mayer's total valence
  BVA  - Mayer's bonded valence
  FA   - Mayer's free valence

  ATOM       NA         ZA         QA         VA         BVA        FA
  0 Na    11.0000    11.0000     0.0000     1.0030     1.0030    -0.0000
  1 Na    11.0000    11.0000    -0.0000     1.0030     1.0030    -0.0000

  Mayer bond orders larger than 0.1
B(  0-Na,  1-Na) :   1.0030 

-------
TIMINGS
-------

Total SCF time: 0 days 0 hours 3 min 18 sec 

Total time                  ....     198.405 sec
Sum of individual times     ....     197.949 sec  ( 99.8%)

Fock matrix formation       ....     195.253 sec  ( 98.4%)
  XC integration            ....      17.940 sec  (  9.2% of F)
    Basis function eval.    ....       2.847 sec  ( 15.9% of XC)
    Density eval.           ....       3.696 sec  ( 20.6% of XC)
    XC-Functional eval.     ....       0.550 sec  (  3.1% of XC)
    XC-Potential eval.      ....      10.487 sec  ( 58.5% of XC)
Diagonalization             ....       0.134 sec  (  0.1%)
Density matrix formation    ....       0.004 sec  (  0.0%)
Population analysis         ....       0.046 sec  (  0.0%)
Initial guess               ....       0.992 sec  (  0.5%)
Orbital Transformation      ....       0.000 sec  (  0.0%)
Orbital Orthonormalization  ....       0.000 sec  (  0.0%)
DIIS solution               ....       0.080 sec  (  0.0%)
Grid generation             ....       1.440 sec  (  0.7%)

-------------------------   --------------------
FINAL SINGLE POINT ENERGY      -324.372787056314
-------------------------   --------------------


                            ***************************************
                            *     ORCA property calculations      *
                            ***************************************

                                    ---------------------
                                    Active property flags
                                    ---------------------
   (+) Dipole Moment
   (+) Polarizability


------------------------------------------------------------------------------
                       ORCA ELECTRIC PROPERTIES CALCULATION
------------------------------------------------------------------------------

Dipole Moment Calculation                       ... on
Quadrupole Moment Calculation                   ... off
Polarizability Calculation                      ... Analytic (CP-SCF)
GBWName                                         ... na2_pbe.gbw
Electron density file                           ... na2_pbe.scfp.tmp
The origin for moment calculation is the CENTER OF MASS  = ( 0.000000,  0.000000  2.909139)

-------------
DIPOLE MOMENT
-------------
                                X             Y             Z
Electronic contribution:      0.00000      -0.00000      -0.00000
Nuclear contribution   :      0.00000       0.00000       0.00000
                        -----------------------------------------
Total Dipole Moment    :      0.00000      -0.00000      -0.00000
                        -----------------------------------------
Magnitude (a.u.)       :      0.00000
Magnitude (Debye)      :      0.00000



--------------------
Rotational spectrum 
--------------------
 
Rotational constants in cm-1:     0.000000     0.154702     0.154702 
Rotational constants in MHz :     0.000000  4637.858146  4637.858146 

 Dipole components along the rotational axes: 
x,y,z [a.u.] :    -0.000000    -0.000000     0.000000 
x,y,z [Debye]:    -0.000000    -0.000000     0.000000 

 
Transforming and storing MO dipole integrals   ... done

                ... starting polarizability calculation

Opening the Dipole integral file               ... (na2_pbe.dmo.tmp) done
Reading Dipole-MO integrals                    ... done
Solving CP-SCF equations                       ... 
------------------------------------------------------------------------------
                           ORCA CP-SCF CALCULATION
------------------------------------------------------------------------------

Input orbitals are from        ... na2_pbe.gbw
Input Perturbation             ... na2_pbe.cpv.tmp
Wavefunction output            ... na2_pbe.cpu.tmp
Perturbation mode              ... Real perturbation (singlet)
Solver                         ... POPLE
Max. number of iterations      ... 200
Convergence tolerance          ... 1.000e-06
Integral handling              ... Direct
Number of perturbations        ... 3
Number of operators            ... 2
Orbital ranges used for CP-SCF:
 Operator 0:  Orbitals   0... 10  to  11...169
 Operator 1:  Orbitals   0... 10  to  11...169
DFT calculation                         ... on
Exchange functional (SCF)               ... PBE
Exchange functional (CP-SCF)            ... PBE
   PBE kappa parameter  XKappa (SCF)    ...  0.804000
   PBE kappa parameter  XKappa (CP-SCF) ...  0.804000
   PBE mue parameter   XMuePBE (SCF)    ...  0.219520
   PBE mue parameter   XMuePBE (CP-SCF) ...  0.219520
Correlation functional (SCF)            ... PBE
Correlation functional (CP-SCF)         ... PBE
   PBE beta parameter CBetaPBE (SCF)    ...  0.066725
   PBE beta parameter CBetaPBE (CP-SCF) ...  0.066725
 LDA part of GGA corr.  LDAOpt (SCF)    ... PW91-LDA
 LDA part of GGA corr.  LDAOpt (CP-SCF) ... PW91-LDA
Variables per vector in CP-SCF ... 3498
Number of vectors sought       ... 3
Recalculating density on grid  ... done
Calculating the xc-kernel      ... done
     CP-SCF ITERATION   0: 
     CP-SCF ITERATION   1:      0.950076614630
     CP-SCF ITERATION   2:      0.016686041002
     CP-SCF ITERATION   3:      0.000219145872
     CP-SCF ITERATION   4:      0.000001292125
     CP-SCF ITERATION   5:      0.000000028081
done
Reading CP-SCF coefficients                    ... done
Doing the polarizability tensor   ... done
Cleaning up                                    ... done

-------------------------
THE POLARIZABILITY TENSOR
-------------------------

The raw cartesian tensor (atomic units):
  195.90957      0.00000      0.00000  
    0.00000    195.90957     -0.00000  
    0.00000     -0.00000    332.33308  
diagonalized tensor: 
  195.90957    195.90957    332.33308  

    0.72196      0.69194      0.00000  
   -0.69194      0.72196     -0.00000  
   -0.00000      0.00000      1.00000  

Isotropic polarizability : 241.38407


Timings for individual modules:

Sum of individual times         ...      370.794 sec (=   6.180 min)
GTO integral calculation        ...        6.991 sec (=   0.117 min)   1.9 %
SCF iterations                  ...      203.842 sec (=   3.397 min)  55.0 %
Solution of CP-SCF eqns.        ...      159.961 sec (=   2.666 min)  43.1 %
                             ****ORCA TERMINATED NORMALLY****
TOTAL RUN TIME: 0 days 0 hours 6 minutes 11 seconds 216 msec
