
                                 *****************
                                 * O   R   C   A *
                                 *****************

           --- An Ab Initio, DFT and Semiempirical electronic structure package ---

                  #######################################################
                  #                        -***-                        #
                  #          Department of theory and spectroscopy      #
                  #               Directorship: Frank Neese             #
                  #        Max Planck Institute fuer Kohlenforschung    #
                  #                Kaiser Wilhelm Platz 1               #
                  #                 D-45470 Muelheim/Ruhr               #
                  #                      Germany                        #
                  #                                                     #
                  #                  All rights reserved                #
                  #                        -***-                        #
                  #######################################################


                         Program Version 4.1.2  - RELEASE  -


 With contributions from (in alphabetic order):
   Daniel Aravena         : Magnetic Properties
   Michael Atanasov       : Ab Initio Ligand Field Theory
   Alexander A. Auer      : GIAO ZORA
   Ute Becker             : Parallelization
   Giovanni Bistoni       : ED, Open-shell LED
   Martin Brehm           : Molecular dynamics
   Dmytro Bykov           : SCF Hessian
   Vijay G. Chilkuri      : MRCI spin determinant printing
   Dipayan Datta          : RHF DLPNO-CCSD density
   Achintya Kumar Dutta   : EOM-CC, STEOM-CC
   Dmitry Ganyushin       : Spin-Orbit,Spin-Spin,Magnetic field MRCI
   Miquel Garcia          : C-PCM Hessian
   Yang Guo               : DLPNO-NEVPT2, CIM, IAO-localization
   Andreas Hansen         : Spin unrestricted coupled pair/coupled cluster methods
   Benjamin Helmich-Paris : CASSCF linear response (MC-RPA)
   Lee Huntington         : MR-EOM, pCC
   Robert Izsak           : Overlap fitted RIJCOSX, COSX-SCS-MP3, EOM
   Christian Kollmar      : KDIIS, OOCD, Brueckner-CCSD(T), CCSD density
   Simone Kossmann        : Meta GGA functionals, TD-DFT gradient, OOMP2, MP2 Hessian
   Martin Krupicka        : AUTO-CI
   Lucas Lang             : DCDCAS
   Dagmar Lenk            : GEPOL surface, SMD
   Dimitrios Liakos       : Extrapolation schemes; parallel MDCI
   Dimitrios Manganas     : ROCIS; embedding schemes
   Dimitrios Pantazis     : SARC Basis sets
   Taras Petrenko         : DFT Hessian,TD-DFT gradient, ASA, ECA, R-Raman, ABS, FL, XAS/XES, NRVS
   Peter Pinski           : DLPNO-MP2, DLPNO-MP2 Gradient
   Christoph Reimann      : Effective Core Potentials
   Marius Retegan         : Local ZFS, SOC
   Christoph Riplinger    : Optimizer, TS searches, QM/MM, DLPNO-CCSD(T), (RO)-DLPNO pert. Triples
   Tobias Risthaus        : Range-separated hybrids, TD-DFT gradient, RPA, STAB
   Michael Roemelt        : Restricted open shell CIS
   Masaaki Saitow         : Open-shell DLPNO
   Barbara Sandhoefer     : DKH picture change effects
   Avijit Sen             : IP-ROCIS
   Kantharuban Sivalingam : CASSCF convergence, NEVPT2, FIC-MRCI
   Bernardo de Souza      : ESD, SOC TD-DFT
   Georgi Stoychev        : AutoAux, RI-MP2 NMR
   Willem Van den Heuvel  : Paramagnetic NMR
   Boris Wezisla          : Elementary symmetry handling
   Frank Wennmohs         : Technical directorship


 We gratefully acknowledge several colleagues who have allowed us to
 interface, adapt or use parts of their codes:
   Stefan Grimme, W. Hujo, H. Kruse,             : VdW corrections, initial TS optimization,
                  C. Bannwarth                     DFT functionals, gCP, sTDA/sTD-DF
   Ed Valeev                                     : LibInt (2-el integral package), F12 methods
   Garnet Chan, S. Sharma, J. Yang, R. Olivares  : DMRG
   Ulf Ekstrom                                   : XCFun DFT Library
   Mihaly Kallay                                 : mrcc  (arbitrary order and MRCC methods)
   Andreas Klamt, Michael Diedenhofen            : otool_cosmo (COSMO solvation model)
   Jiri Pittner, Ondrej Demel                    : Mk-CCSD
   Frank Weinhold                                : gennbo (NPA and NBO analysis)
   Christopher J. Cramer and Donald G. Truhlar   : smd solvation model
   Lars Goerigk                                  : TD-DFT with DH, B97 family of functionals
   V. Asgeirsson, H. Jonsson                     : NEB implementation
   FAccTs GmbH                                   : IRC, NEB, NEB-TS, Multilevel


 Your calculation uses the libint2 library for the computation of 2-el integrals
 For citations please refer to: http://libint.valeyev.net

 This ORCA versions uses:
   CBLAS   interface :  Fast vector & matrix operations
   LAPACKE interface :  Fast linear algebra routines
   SCALAPACK package :  Parallel linear algebra routines


----- Orbital basis set information -----
Your calculation utilizes the basis: aug-pc-4
   H, C-F              : F. Jensen, J. Chem. Phys. 115, 9113 (2001).
                         F. Jensen, J. Chem. Phys. 116, 7372 (2002).
                         F. Jensen, J. Chem. Phys. 117, 9234 (2002).
   Si-Cl               : F. Jensen, T. Helgaker, J. Chem. Phys. 121, 3463 (2004).
   He-B, Ne-Mg, Al, Ar : F. Jensen, J. Phys. Chem. A 111, 11198 (2007).
   K, Ca, Ga-Kr        : F. Jensen, J. Chem. Phys. 136, 094110 (2012).
   Sc-Zn               : F. Jensen, J. Chem. Phys. 138, 014107 (2013).

================================================================================
                                        WARNINGS
                       Please study these warnings very carefully!
================================================================================


INFO   : the flag for use of LIBINT has been found!

================================================================================
                                       INPUT FILE
================================================================================
NAME = na_pbe.inp
|  1> !uks pbe nori aug-pc-4 grid7 nofinalgrid verytightscf
|  2> 
|  3> %maxcore 1500
|  4> 
|  5> %pal nprocs 1 end
|  6> 
|  7> %scf
|  8> 	maxiter 200
|  9> end
| 10> %elprop
| 11> 	dipole true
| 12> 	 polar 1
| 13> 	 maxiter 200
| 14> end
| 15> 
| 16> * xyz 0 2
| 17> Na 0.0 0.0 0.0
| 18> *
| 19> 
| 20>                          ****END OF INPUT****
================================================================================

                       ****************************
                       * Single Point Calculation *
                       ****************************

---------------------------------
CARTESIAN COORDINATES (ANGSTROEM)
---------------------------------
  Na     0.000000    0.000000    0.000000

----------------------------
CARTESIAN COORDINATES (A.U.)
----------------------------
  NO LB      ZA    FRAG     MASS         X           Y           Z
   0 Na   11.0000    0    22.990    0.000000    0.000000    0.000000

--------------------------------
INTERNAL COORDINATES (ANGSTROEM)
--------------------------------
 Na     0   0   0     0.000000000000     0.00000000     0.00000000

---------------------------
INTERNAL COORDINATES (A.U.)
---------------------------
 Na     0   0   0     0.000000000000     0.00000000     0.00000000

---------------------
BASIS SET INFORMATION
---------------------
There are 1 groups of distinct atoms

 Group   1 Type Na  : 44s16p4d3f2g contracted to 8s6p4d3f2g pattern {15111311111/1111111/1111/111/11}

Atom   0Na   basis set group =>   1
------------------------------------------------------------------------------
                           ORCA GTO INTEGRAL CALCULATION
------------------------------------------------------------------------------

                         BASIS SET STATISTICS AND STARTUP INFO

 # of primitive gaussian shells          ...   69
 # of primitive gaussian functions       ...  151
 # of contracted shells                  ...   23
 # of contracted basis functions         ...   85
 Highest angular momentum                ...    4
 Maximum contraction depth               ...   15
 Integral package used                   ... LIBINT
 Integral threshhold            Thresh   ...  1.000e-12
 Primitive cut-off              TCut     ...  1.000e-14


------------------------------ INTEGRAL EVALUATION ----------------------------


 * One electron integrals 
 Pre-screening matrix                    ... done
 Shell pair data                         ... done (   0.000 sec)

-------------------------------------------------------------------------------
                                 ORCA SCF
-------------------------------------------------------------------------------

------------
SCF SETTINGS
------------
Hamiltonian:
 Density Functional     Method          .... DFT(GTOs)
 Exchange Functional    Exchange        .... PBE
   PBE kappa parameter   XKappa         ....  0.804000
   PBE mue parameter    XMuePBE         ....  0.219520
 Correlation Functional Correlation     .... PBE
   PBE beta parameter  CBetaPBE         ....  0.066725
 LDA part of GGA corr.  LDAOpt          .... PW91-LDA
 Gradients option       PostSCFGGA      .... off
   Density functional embedding theory  .... OFF
   NL short-range parameter             ....  6.400000


General Settings:
 Integral files         IntName         .... na_pbe
 Hartree-Fock type      HFTyp           .... UHF
 Total Charge           Charge          ....    0
 Multiplicity           Mult            ....    2
 Number of Electrons    NEL             ....   11
 Basis Dimension        Dim             ....   85
 Nuclear Repulsion      ENuc            ....      0.0000000000 Eh

Convergence Acceleration:
 DIIS                   CNVDIIS         .... on
   Start iteration      DIISMaxIt       ....    12
   Startup error        DIISStart       ....  0.200000
   # of expansion vecs  DIISMaxEq       ....     5
   Bias factor          DIISBfac        ....   1.050
   Max. coefficient     DIISMaxC        ....  10.000
 Newton-Raphson         CNVNR           .... off
 SOSCF                  CNVSOSCF        .... off
 Level Shifting         CNVShift        .... on
   Level shift para.    LevelShift      ....    0.2500
   Turn off err/grad.   ShiftErr        ....    0.0010
 Zerner damping         CNVZerner       .... off
 Static damping         CNVDamp         .... on
   Fraction old density DampFac         ....    0.7000
   Max. Damping (<1)    DampMax         ....    0.9800
   Min. Damping (>=0)   DampMin         ....    0.0000
   Turn off err/grad.   DampErr         ....    0.1000
 Fernandez-Rico         CNVRico         .... off

SCF Procedure:
 Maximum # iterations   MaxIter         ....   200
 SCF integral mode      SCFMode         .... Direct
   Integral package                     .... LIBINT
 Reset frequency        DirectResetFreq ....    20
 Integral Threshold     Thresh          ....  1.000e-12 Eh
 Primitive CutOff       TCut            ....  1.000e-14 Eh

Convergence Tolerance:
 Convergence Check Mode ConvCheckMode   .... Total+1el-Energy
 Convergence forced     ConvForced      .... 0
 Energy Change          TolE            ....  1.000e-09 Eh
 1-El. energy change                    ....  1.000e-06 Eh
 DIIS Error             TolErr          ....  1.000e-08


Diagonalization of the overlap matrix:
Smallest eigenvalue                        ... 1.658e-03
Time for diagonalization                   ...    0.001 sec
Threshold for overlap eigenvalues          ... 1.000e-08
Number of eigenvalues below threshold      ... 0
Time for construction of square roots      ...    0.004 sec
Total time needed                          ...    0.006 sec

-------------------
DFT GRID GENERATION
-------------------

General Integration Accuracy     IntAcc      ...  5.670
Radial Grid Type                 RadialGrid  ... Gauss-Chebyshev
Angular Grid (max. acc.)         AngularGrid ... Lebedev-770
Angular grid pruning method      GridPruning ... 3 (G Style)
Weight generation scheme         WeightScheme... Becke
Basis function cutoff            BFCut       ...    1.0000e-12
Integration weight cutoff        WCut        ...    1.0000e-14
Grids for H and He will be reduced by one unit

# of grid points (after initial pruning)     ...  26256 (   0.0 sec)
# of grid points (after weights+screening)   ...  26256 (   0.0 sec)
Grid point division into batches done        ...    0.6 sec
Reduced shell lists constructed in    0.6 sec

Total number of grid points                  ...    26256
Total number of batches                      ...      411
Average number of points per batch           ...       63
Average number of grid points per atom       ...    26256
Average number of shells per batch           ...    19.71 (85.68%)
Average number of basis functions per batch  ...    72.69 (85.52%)
Average number of large shells per batch     ...    18.60 (94.40%)
Average number of large basis fcns per batch ...    68.30 (93.96%)
Maximum spatial batch extension              ...  22.27, 22.27, 22.27 au
Average spatial batch extension              ...   4.62,  4.61,  4.58 au

Time for grid setup =    0.656 sec

------------------------------
INITIAL GUESS: MODEL POTENTIAL
------------------------------
Loading Hartree-Fock densities                     ... done
Calculating cut-offs                               ... done
Setting up the integral package                    ... done
Initializing the effective Hamiltonian             ... done
Starting the Coulomb interaction                   ... done (   0.0 sec)
Reading the grid                                   ... done
Mapping shells                                     ... done
Starting the XC term evaluation                    ... done (   0.2 sec)
  promolecular density results
     # of electrons  =     10.999999875
     EX              =    -13.938147188
     EC              =     -0.376266326
     EX+EC           =    -14.314413514
Transforming the Hamiltonian                       ... done (   0.0 sec)
Diagonalizing the Hamiltonian                      ... done (   0.0 sec)
Back transforming the eigenvectors                 ... done (   0.0 sec)
Now organizing SCF variables                       ... done
                      ------------------
                      INITIAL GUESS DONE (   0.9 sec)
                      ------------------
--------------
SCF ITERATIONS
--------------
ITER       Energy         Delta-E        Max-DP      RMS-DP      [F,P]     Damp
               ***  Starting incremental Fock matrix formation  ***
  0   -162.1719900566   0.000000000000 0.00478613  0.00011331  0.0120444 0.7000
  1   -162.1720917260  -0.000101669449 0.00666718  0.00012293  0.0065394 0.7000
                               ***Turning on DIIS***
  2   -162.1721605969  -0.000068870944 0.02228525  0.00039612  0.0031276 0.0000
  3   -162.1723074935  -0.000146896586 0.00567292  0.00008521  0.0028220 0.0000
  4   -162.1723203144  -0.000012820898 0.00592329  0.00007672  0.0004286 0.0000
  5   -162.1723231197  -0.000002805273 0.00047858  0.00000655  0.0000972 0.0000
  6   -162.1723231327  -0.000000012986 0.00003304  0.00000039  0.0000077 0.0000
  7   -162.1723231328  -0.000000000094 0.00000400  0.00000004  0.0000004 0.0000
                 **** Energy Check signals convergence ****

               *****************************************************
               *                     SUCCESS                       *
               *           SCF CONVERGED AFTER   8 CYCLES          *
               *****************************************************


----------------
TOTAL SCF ENERGY
----------------

Total Energy       :         -162.17232313 Eh           -4412.93326 eV

Components:
Nuclear Repulsion  :            0.00000000 Eh               0.00000 eV
Electronic Energy  :         -162.17232313 Eh           -4412.93326 eV
One Electron Energy:         -227.81900578 Eh           -6199.27031 eV
Two Electron Energy:           65.64668265 Eh            1786.33705 eV

Virial components:
Potential Energy   :         -324.17941766 Eh           -8821.37042 eV
Kinetic Energy     :          162.00709453 Eh            4408.43716 eV
Virial Ratio       :            2.00101988


DFT components:
N(Alpha)           :        5.999999998285 electrons
N(Beta)            :        5.000000000279 electrons
N(Total)           :       10.999999998564 electrons
E(X)               :      -13.928322671561 Eh       
E(C)               :       -0.368191205437 Eh       
E(XC)              :      -14.296513876998 Eh       
DFET-embed. en.    :        0.000000000000 Eh       

---------------
SCF CONVERGENCE
---------------

  Last Energy change         ...   -3.1264e-13  Tolerance :   1.0000e-09
  Last MAX-Density change    ...    5.6530e-07  Tolerance :   1.0000e-08
  Last RMS-Density change    ...    5.4154e-09  Tolerance :   1.0000e-09
  Last DIIS Error            ...    7.0250e-09  Tolerance :   1.0000e-08

             **** THE GBW FILE WAS UPDATED (na_pbe.gbw) ****
             **** DENSITY FILE WAS UPDATED (na_pbe.scfp.tmp) ****
             **** ENERGY FILE WAS UPDATED (na_pbe.en.tmp) ****
----------------------
UHF SPIN CONTAMINATION
----------------------

Warning: in a DFT calculation there is little theoretical justification to 
         calculate <S**2> as in Hartree-Fock theory. We will do it anyways
         but you should keep in mind that the values have only limited relevance

Expectation value of <S**2>     :     0.750041
Ideal value S*(S+1) for S=0.5   :     0.750000
Deviation                       :     0.000041

----------------
ORBITAL ENERGIES
----------------
                 SPIN UP ORBITALS
  NO   OCC          E(Eh)            E(eV) 
   0   1.0000     -37.907165     -1031.5064 
   1   1.0000      -2.073738       -56.4293 
   2   1.0000      -1.049848       -28.5678 
   3   1.0000      -1.049848       -28.5678 
   4   1.0000      -1.049848       -28.5678 
   5   1.0000      -0.111487        -3.0337 
   6   0.0000      -0.034528        -0.9396 
   7   0.0000      -0.034528        -0.9396 
   8   0.0000      -0.034528        -0.9396 
   9   0.0000      -0.004800        -0.1306 
  10   0.0000       0.010797         0.2938 
  11   0.0000       0.010797         0.2938 
  12   0.0000       0.010797         0.2938 
  13   0.0000       0.020278         0.5518 
  14   0.0000       0.020636         0.5615 
  15   0.0000       0.020636         0.5615 
  16   0.0000       0.020636         0.5615 
  17   0.0000       0.020636         0.5615 
  18   0.0000       0.020636         0.5615 
  19   0.0000       0.056257         1.5308 
  20   0.0000       0.056257         1.5308 
  21   0.0000       0.056257         1.5308 
  22   0.0000       0.067466         1.8359 
  23   0.0000       0.067466         1.8359 
  24   0.0000       0.067466         1.8359 
  25   0.0000       0.067466         1.8359 
  26   0.0000       0.067466         1.8359 
  27   0.0000       0.067466         1.8359 
  28   0.0000       0.067466         1.8359 
  29   0.0000       0.086328         2.3491 
  30   0.0000       0.121042         3.2937 
  31   0.0000       0.121042         3.2937 
  32   0.0000       0.121042         3.2937 
  33   0.0000       0.121042         3.2937 
  34   0.0000       0.121042         3.2937 
  35   0.0000       0.121042         3.2937 
  36   0.0000       0.121042         3.2937 
  37   0.0000       0.121042         3.2937 
  38   0.0000       0.121042         3.2937 
  39   0.0000       0.199383         5.4255 
  40   0.0000       0.199383         5.4255 
  41   0.0000       0.199383         5.4255 
  42   0.0000       0.248490         6.7618 
  43   0.0000       0.248490         6.7618 
  44   0.0000       0.248490         6.7618 
  45   0.0000       0.248490         6.7618 
  46   0.0000       0.248490         6.7618 
  47   0.0000       0.284861         7.7515 
  48   0.0000       0.623877        16.9766 
  49   0.0000       0.623877        16.9766 
  50   0.0000       0.623877        16.9766 
  51   0.0000       0.782366        21.2893 
  52   0.0000       0.782366        21.2893 
  53   0.0000       0.782366        21.2893 
  54   0.0000       0.782366        21.2893 
  55   0.0000       0.782366        21.2893 
  56   0.0000       0.782366        21.2893 
  57   0.0000       0.782366        21.2893 
  58   0.0000       1.315235        35.7894 
  59   0.0000       1.315235        35.7894 
  60   0.0000       1.315235        35.7894 
  61   0.0000       1.315235        35.7894 
  62   0.0000       1.315235        35.7894 
  63   0.0000       1.357974        36.9524 
  64   0.0000       1.357974        36.9524 
  65   0.0000       1.357974        36.9524 
  66   0.0000       1.357974        36.9524 
  67   0.0000       1.357974        36.9524 
  68   0.0000       1.357974        36.9524 
  69   0.0000       1.357974        36.9524 
  70   0.0000       1.357974        36.9524 
  71   0.0000       1.357974        36.9524 
  72   0.0000       2.295361        62.4600 
  73   0.0000       3.908833       106.3647 
  74   0.0000       3.908833       106.3647 
  75   0.0000       3.908833       106.3647 
  76   0.0000       3.908833       106.3647 
  77   0.0000       3.908833       106.3647 
  78   0.0000       3.908833       106.3647 
  79   0.0000       3.908833       106.3647 
  80   0.0000       5.537537       150.6840 
  81   0.0000       5.537537       150.6840 
  82   0.0000       5.537537       150.6840 
  83   0.0000       5.537537       150.6840 
  84   0.0000       5.537537       150.6840 

                 SPIN DOWN ORBITALS
  NO   OCC          E(Eh)            E(eV) 
   0   1.0000     -37.906210     -1031.4804 
   1   1.0000      -2.071156       -56.3590 
   2   1.0000      -1.046661       -28.4811 
   3   1.0000      -1.046661       -28.4811 
   4   1.0000      -1.046661       -28.4811 
   5   0.0000      -0.051449        -1.4000 
   6   0.0000       0.007946         0.2162 
   7   0.0000       0.013286         0.3615 
   8   0.0000       0.013286         0.3615 
   9   0.0000       0.013286         0.3615 
  10   0.0000       0.037649         1.0245 
  11   0.0000       0.037649         1.0245 
  12   0.0000       0.037649         1.0245 
  13   0.0000       0.039551         1.0762 
  14   0.0000       0.066536         1.8105 
  15   0.0000       0.066536         1.8105 
  16   0.0000       0.066536         1.8105 
  17   0.0000       0.066536         1.8105 
  18   0.0000       0.066536         1.8105 
  19   0.0000       0.091689         2.4950 
  20   0.0000       0.091689         2.4950 
  21   0.0000       0.091689         2.4950 
  22   0.0000       0.109729         2.9859 
  23   0.0000       0.109729         2.9859 
  24   0.0000       0.109729         2.9859 
  25   0.0000       0.109729         2.9859 
  26   0.0000       0.109729         2.9859 
  27   0.0000       0.109729         2.9859 
  28   0.0000       0.109729         2.9859 
  29   0.0000       0.127153         3.4600 
  30   0.0000       0.161187         4.3861 
  31   0.0000       0.161187         4.3861 
  32   0.0000       0.161187         4.3861 
  33   0.0000       0.161187         4.3861 
  34   0.0000       0.161187         4.3861 
  35   0.0000       0.161187         4.3861 
  36   0.0000       0.161187         4.3861 
  37   0.0000       0.161187         4.3861 
  38   0.0000       0.161187         4.3861 
  39   0.0000       0.250209         6.8085 
  40   0.0000       0.250209         6.8085 
  41   0.0000       0.250209         6.8085 
  42   0.0000       0.302379         8.2281 
  43   0.0000       0.302379         8.2281 
  44   0.0000       0.302379         8.2281 
  45   0.0000       0.302379         8.2281 
  46   0.0000       0.302379         8.2281 
  47   0.0000       0.337466         9.1829 
  48   0.0000       0.668302        18.1854 
  49   0.0000       0.668302        18.1854 
  50   0.0000       0.668302        18.1854 
  51   0.0000       0.825123        22.4527 
  52   0.0000       0.825123        22.4527 
  53   0.0000       0.825123        22.4527 
  54   0.0000       0.825123        22.4527 
  55   0.0000       0.825123        22.4527 
  56   0.0000       0.825123        22.4527 
  57   0.0000       0.825123        22.4527 
  58   0.0000       1.338648        36.4265 
  59   0.0000       1.338648        36.4265 
  60   0.0000       1.338648        36.4265 
  61   0.0000       1.338648        36.4265 
  62   0.0000       1.338648        36.4265 
  63   0.0000       1.399170        38.0733 
  64   0.0000       1.399170        38.0733 
  65   0.0000       1.399170        38.0733 
  66   0.0000       1.399170        38.0733 
  67   0.0000       1.399170        38.0733 
  68   0.0000       1.399170        38.0733 
  69   0.0000       1.399170        38.0733 
  70   0.0000       1.399170        38.0733 
  71   0.0000       1.399170        38.0733 
  72   0.0000       2.316190        63.0267 
  73   0.0000       3.921636       106.7131 
  74   0.0000       3.921636       106.7131 
  75   0.0000       3.921636       106.7131 
  76   0.0000       3.921636       106.7131 
  77   0.0000       3.921636       106.7131 
  78   0.0000       3.921636       106.7131 
  79   0.0000       3.921636       106.7131 
  80   0.0000       5.542790       150.8270 
  81   0.0000       5.542790       150.8270 
  82   0.0000       5.542790       150.8270 
  83   0.0000       5.542790       150.8270 
  84   0.0000       5.542790       150.8270 

                    ********************************
                    * MULLIKEN POPULATION ANALYSIS *
                    ********************************

--------------------------------------------
MULLIKEN ATOMIC CHARGES AND SPIN POPULATIONS
--------------------------------------------
   0 Na:    0.000000    1.000000
Sum of atomic charges         :    0.0000000
Sum of atomic spin populations:    1.0000000

-----------------------------------------------------
MULLIKEN REDUCED ORBITAL CHARGES AND SPIN POPULATIONS
-----------------------------------------------------
CHARGE
  0 Nas       :     5.000000  s :     5.000000
      pz      :     2.000000  p :     6.000000
      px      :     2.000000
      py      :     2.000000
      dz2     :     0.000000  d :     0.000000
      dxz     :     0.000000
      dyz     :     0.000000
      dx2y2   :     0.000000
      dxy     :     0.000000
      f0      :     0.000000  f :     0.000000
      f+1     :     0.000000
      f-1     :     0.000000
      f+2     :     0.000000
      f-2     :     0.000000
      f+3     :     0.000000
      f-3     :     0.000000
      g0      :     0.000000  g :     0.000000
      g+1     :     0.000000
      g-1     :     0.000000
      g+2     :     0.000000
      g-2     :     0.000000
      g+3     :     0.000000
      g-3     :     0.000000
      g+4     :     0.000000
      g-4     :     0.000000

SPIN
  0 Nas       :     1.000000  s :     1.000000
      pz      :    -0.000000  p :    -0.000000
      px      :    -0.000000
      py      :    -0.000000
      dz2     :     0.000000  d :     0.000000
      dxz     :     0.000000
      dyz     :     0.000000
      dx2y2   :     0.000000
      dxy     :     0.000000
      f0      :     0.000000  f :     0.000000
      f+1     :     0.000000
      f-1     :     0.000000
      f+2     :     0.000000
      f-2     :    -0.000000
      f+3     :     0.000000
      f-3     :     0.000000
      g0      :     0.000000  g :     0.000000
      g+1     :     0.000000
      g-1     :     0.000000
      g+2     :     0.000000
      g-2     :     0.000000
      g+3     :     0.000000
      g-3     :     0.000000
      g+4     :     0.000000
      g-4     :     0.000000


                     *******************************
                     * LOEWDIN POPULATION ANALYSIS *
                     *******************************

-------------------------------------------
LOEWDIN ATOMIC CHARGES AND SPIN POPULATIONS
-------------------------------------------
   0 Na:    0.000000    1.000000

----------------------------------------------------
LOEWDIN REDUCED ORBITAL CHARGES AND SPIN POPULATIONS
----------------------------------------------------
CHARGE
  0 Nas       :     5.000000  s :     5.000000
      pz      :     2.000000  p :     6.000000
      px      :     2.000000
      py      :     2.000000
      dz2     :     0.000000  d :     0.000000
      dxz     :     0.000000
      dyz     :     0.000000
      dx2y2   :     0.000000
      dxy     :     0.000000
      f0      :     0.000000  f :     0.000000
      f+1     :     0.000000
      f-1     :     0.000000
      f+2     :     0.000000
      f-2     :     0.000000
      f+3     :     0.000000
      f-3     :     0.000000
      g0      :     0.000000  g :     0.000000
      g+1     :     0.000000
      g-1     :     0.000000
      g+2     :     0.000000
      g-2     :     0.000000
      g+3     :     0.000000
      g-3     :     0.000000
      g+4     :     0.000000
      g-4     :     0.000000

SPIN
  0 Nas       :     1.000000  s :     1.000000
      pz      :    -0.000000  p :    -0.000000
      px      :    -0.000000
      py      :    -0.000000
      dz2     :     0.000000  d :     0.000000
      dxz     :     0.000000
      dyz     :     0.000000
      dx2y2   :     0.000000
      dxy     :     0.000000
      f0      :     0.000000  f :     0.000000
      f+1     :     0.000000
      f-1     :     0.000000
      f+2     :     0.000000
      f-2     :    -0.000000
      f+3     :     0.000000
      f-3     :     0.000000
      g0      :     0.000000  g :     0.000000
      g+1     :     0.000000
      g-1     :     0.000000
      g+2     :     0.000000
      g-2     :     0.000000
      g+3     :     0.000000
      g-3     :     0.000000
      g+4     :     0.000000
      g-4     :     0.000000


                      *****************************
                      * MAYER POPULATION ANALYSIS *
                      *****************************

  NA   - Mulliken gross atomic population
  ZA   - Total nuclear charge
  QA   - Mulliken gross atomic charge
  VA   - Mayer's total valence
  BVA  - Mayer's bonded valence
  FA   - Mayer's free valence

  ATOM       NA         ZA         QA         VA         BVA        FA
  0 Na    11.0000    11.0000     0.0000     1.0001     0.0000     1.0001

  Mayer bond orders larger than 0.1


-------
TIMINGS
-------

Total SCF time: 0 days 0 hours 0 min 9 sec 

Total time                  ....       9.607 sec
Sum of individual times     ....       9.284 sec  ( 96.6%)

Fock matrix formation       ....       8.253 sec  ( 85.9%)
  XC integration            ....       2.894 sec  ( 35.1% of F)
    Basis function eval.    ....       0.580 sec  ( 20.0% of XC)
    Density eval.           ....       0.554 sec  ( 19.1% of XC)
    XC-Functional eval.     ....       0.221 sec  (  7.6% of XC)
    XC-Potential eval.      ....       1.318 sec  ( 45.5% of XC)
Diagonalization             ....       0.027 sec  (  0.3%)
Density matrix formation    ....       0.001 sec  (  0.0%)
Population analysis         ....       0.033 sec  (  0.3%)
Initial guess               ....       0.276 sec  (  2.9%)
Orbital Transformation      ....       0.000 sec  (  0.0%)
Orbital Orthonormalization  ....       0.000 sec  (  0.0%)
DIIS solution               ....       0.037 sec  (  0.4%)
Grid generation             ....       0.656 sec  (  6.8%)

-------------------------   --------------------
FINAL SINGLE POINT ENERGY      -162.172323132785
-------------------------   --------------------


                            ***************************************
                            *     ORCA property calculations      *
                            ***************************************

                                    ---------------------
                                    Active property flags
                                    ---------------------
   (+) Dipole Moment
   (+) Polarizability


------------------------------------------------------------------------------
                       ORCA ELECTRIC PROPERTIES CALCULATION
------------------------------------------------------------------------------

Dipole Moment Calculation                       ... on
Quadrupole Moment Calculation                   ... off
Polarizability Calculation                      ... Analytic (CP-SCF)
GBWName                                         ... na_pbe.gbw
Electron density file                           ... na_pbe.scfp.tmp
The origin for moment calculation is the CENTER OF MASS  = ( 0.000000,  0.000000  0.000000)

-------------
DIPOLE MOMENT
-------------
                                X             Y             Z
Electronic contribution:     -0.00000      -0.00000      -0.00000
Nuclear contribution   :      0.00000       0.00000       0.00000
                        -----------------------------------------
Total Dipole Moment    :     -0.00000      -0.00000      -0.00000
                        -----------------------------------------
Magnitude (a.u.)       :      0.00000
Magnitude (Debye)      :      0.00000



--------------------
Rotational spectrum 
--------------------
 
Rotational constants in cm-1:     0.000000     0.000000     0.000000 
Rotational constants in MHz :     0.000000     0.000000     0.000000 

 Dipole components along the rotational axes: 
x,y,z [a.u.] :    -0.000000    -0.000000    -0.000000 
x,y,z [Debye]:    -0.000000    -0.000000    -0.000000 

 
Transforming and storing MO dipole integrals   ... done

                ... starting polarizability calculation

Opening the Dipole integral file               ... (na_pbe.dmo.tmp) done
Reading Dipole-MO integrals                    ... done
Solving CP-SCF equations                       ... 
------------------------------------------------------------------------------
                           ORCA CP-SCF CALCULATION
------------------------------------------------------------------------------

Input orbitals are from        ... na_pbe.gbw
Input Perturbation             ... na_pbe.cpv.tmp
Wavefunction output            ... na_pbe.cpu.tmp
Perturbation mode              ... Real perturbation (singlet)
Solver                         ... POPLE
Max. number of iterations      ... 200
Convergence tolerance          ... 1.000e-06
Integral handling              ... Direct
Number of perturbations        ... 3
Number of operators            ... 2
Orbital ranges used for CP-SCF:
 Operator 0:  Orbitals   0...  5  to   6... 84
 Operator 1:  Orbitals   0...  4  to   5... 84
DFT calculation                         ... on
Exchange functional (SCF)               ... PBE
Exchange functional (CP-SCF)            ... PBE
   PBE kappa parameter  XKappa (SCF)    ...  0.804000
   PBE kappa parameter  XKappa (CP-SCF) ...  0.804000
   PBE mue parameter   XMuePBE (SCF)    ...  0.219520
   PBE mue parameter   XMuePBE (CP-SCF) ...  0.219520
Correlation functional (SCF)            ... PBE
Correlation functional (CP-SCF)         ... PBE
   PBE beta parameter CBetaPBE (SCF)    ...  0.066725
   PBE beta parameter CBetaPBE (CP-SCF) ...  0.066725
 LDA part of GGA corr.  LDAOpt (SCF)    ... PW91-LDA
 LDA part of GGA corr.  LDAOpt (CP-SCF) ... PW91-LDA
Variables per vector in CP-SCF ... 874
Number of vectors sought       ... 3
Recalculating density on grid  ... done
Calculating the xc-kernel      ... done
     CP-SCF ITERATION   0: 
     CP-SCF ITERATION   1:      0.137203450271
     CP-SCF ITERATION   2:      0.001708233331
     CP-SCF ITERATION   3:      0.000002434088
     CP-SCF ITERATION   4:      0.000000000244
done
Reading CP-SCF coefficients                    ... done
Doing the polarizability tensor   ... done
Cleaning up                                    ... done

-------------------------
THE POLARIZABILITY TENSOR
-------------------------

The raw cartesian tensor (atomic units):
  161.20150     -0.00000     -0.00000  
   -0.00000    161.20150     -0.00000  
   -0.00000     -0.00000    161.20150  
diagonalized tensor: 
  161.20150    161.20150    161.20150  

    0.17098      0.98527     -0.00076  
    0.95911     -0.16662     -0.22881  
    0.22556     -0.03839      0.97347  

Isotropic polarizability : 161.20150


Timings for individual modules:

Sum of individual times         ...       25.189 sec (=   0.420 min)
GTO integral calculation        ...        0.426 sec (=   0.007 min)   1.7 %
SCF iterations                  ...        9.638 sec (=   0.161 min)  38.3 %
Solution of CP-SCF eqns.        ...       15.124 sec (=   0.252 min)  60.0 %
                             ****ORCA TERMINATED NORMALLY****
TOTAL RUN TIME: 0 days 0 hours 0 minutes 29 seconds 911 msec
