
                                 *****************
                                 * O   R   C   A *
                                 *****************

           --- An Ab Initio, DFT and Semiempirical electronic structure package ---

                  #######################################################
                  #                        -***-                        #
                  #          Department of theory and spectroscopy      #
                  #               Directorship: Frank Neese             #
                  #        Max Planck Institute fuer Kohlenforschung    #
                  #                Kaiser Wilhelm Platz 1               #
                  #                 D-45470 Muelheim/Ruhr               #
                  #                      Germany                        #
                  #                                                     #
                  #                  All rights reserved                #
                  #                        -***-                        #
                  #######################################################


                         Program Version 4.1.2  - RELEASE  -


 With contributions from (in alphabetic order):
   Daniel Aravena         : Magnetic Properties
   Michael Atanasov       : Ab Initio Ligand Field Theory
   Alexander A. Auer      : GIAO ZORA
   Ute Becker             : Parallelization
   Giovanni Bistoni       : ED, Open-shell LED
   Martin Brehm           : Molecular dynamics
   Dmytro Bykov           : SCF Hessian
   Vijay G. Chilkuri      : MRCI spin determinant printing
   Dipayan Datta          : RHF DLPNO-CCSD density
   Achintya Kumar Dutta   : EOM-CC, STEOM-CC
   Dmitry Ganyushin       : Spin-Orbit,Spin-Spin,Magnetic field MRCI
   Miquel Garcia          : C-PCM Hessian
   Yang Guo               : DLPNO-NEVPT2, CIM, IAO-localization
   Andreas Hansen         : Spin unrestricted coupled pair/coupled cluster methods
   Benjamin Helmich-Paris : CASSCF linear response (MC-RPA)
   Lee Huntington         : MR-EOM, pCC
   Robert Izsak           : Overlap fitted RIJCOSX, COSX-SCS-MP3, EOM
   Christian Kollmar      : KDIIS, OOCD, Brueckner-CCSD(T), CCSD density
   Simone Kossmann        : Meta GGA functionals, TD-DFT gradient, OOMP2, MP2 Hessian
   Martin Krupicka        : AUTO-CI
   Lucas Lang             : DCDCAS
   Dagmar Lenk            : GEPOL surface, SMD
   Dimitrios Liakos       : Extrapolation schemes; parallel MDCI
   Dimitrios Manganas     : ROCIS; embedding schemes
   Dimitrios Pantazis     : SARC Basis sets
   Taras Petrenko         : DFT Hessian,TD-DFT gradient, ASA, ECA, R-Raman, ABS, FL, XAS/XES, NRVS
   Peter Pinski           : DLPNO-MP2, DLPNO-MP2 Gradient
   Christoph Reimann      : Effective Core Potentials
   Marius Retegan         : Local ZFS, SOC
   Christoph Riplinger    : Optimizer, TS searches, QM/MM, DLPNO-CCSD(T), (RO)-DLPNO pert. Triples
   Tobias Risthaus        : Range-separated hybrids, TD-DFT gradient, RPA, STAB
   Michael Roemelt        : Restricted open shell CIS
   Masaaki Saitow         : Open-shell DLPNO
   Barbara Sandhoefer     : DKH picture change effects
   Avijit Sen             : IP-ROCIS
   Kantharuban Sivalingam : CASSCF convergence, NEVPT2, FIC-MRCI
   Bernardo de Souza      : ESD, SOC TD-DFT
   Georgi Stoychev        : AutoAux, RI-MP2 NMR
   Willem Van den Heuvel  : Paramagnetic NMR
   Boris Wezisla          : Elementary symmetry handling
   Frank Wennmohs         : Technical directorship


 We gratefully acknowledge several colleagues who have allowed us to
 interface, adapt or use parts of their codes:
   Stefan Grimme, W. Hujo, H. Kruse,             : VdW corrections, initial TS optimization,
                  C. Bannwarth                     DFT functionals, gCP, sTDA/sTD-DF
   Ed Valeev                                     : LibInt (2-el integral package), F12 methods
   Garnet Chan, S. Sharma, J. Yang, R. Olivares  : DMRG
   Ulf Ekstrom                                   : XCFun DFT Library
   Mihaly Kallay                                 : mrcc  (arbitrary order and MRCC methods)
   Andreas Klamt, Michael Diedenhofen            : otool_cosmo (COSMO solvation model)
   Jiri Pittner, Ondrej Demel                    : Mk-CCSD
   Frank Weinhold                                : gennbo (NPA and NBO analysis)
   Christopher J. Cramer and Donald G. Truhlar   : smd solvation model
   Lars Goerigk                                  : TD-DFT with DH, B97 family of functionals
   V. Asgeirsson, H. Jonsson                     : NEB implementation
   FAccTs GmbH                                   : IRC, NEB, NEB-TS, Multilevel


 Your calculation uses the libint2 library for the computation of 2-el integrals
 For citations please refer to: http://libint.valeyev.net

 This ORCA versions uses:
   CBLAS   interface :  Fast vector & matrix operations
   LAPACKE interface :  Fast linear algebra routines
   SCALAPACK package :  Parallel linear algebra routines


----- Orbital basis set information -----
Your calculation utilizes the basis: aug-pc-4
   H, C-F              : F. Jensen, J. Chem. Phys. 115, 9113 (2001).
                         F. Jensen, J. Chem. Phys. 116, 7372 (2002).
                         F. Jensen, J. Chem. Phys. 117, 9234 (2002).
   Si-Cl               : F. Jensen, T. Helgaker, J. Chem. Phys. 121, 3463 (2004).
   He-B, Ne-Mg, Al, Ar : F. Jensen, J. Phys. Chem. A 111, 11198 (2007).
   K, Ca, Ga-Kr        : F. Jensen, J. Chem. Phys. 136, 094110 (2012).
   Sc-Zn               : F. Jensen, J. Chem. Phys. 138, 014107 (2013).

================================================================================
                                        WARNINGS
                       Please study these warnings very carefully!
================================================================================


INFO   : the flag for use of LIBINT has been found!

================================================================================
                                       INPUT FILE
================================================================================
NAME = nacn_pbe.inp
|  1> !uks pbe nori aug-pc-4 grid7 nofinalgrid verytightscf
|  2> 
|  3> %maxcore 1500
|  4> 
|  5> %pal nprocs 1 end
|  6> 
|  7> %scf
|  8> 	maxiter 200
|  9> end
| 10> %elprop
| 11> 	dipole true
| 12> 	 polar 1
| 13> 	 maxiter 200
| 14> end
| 15> 
| 16> * xyz 0 1
| 17> C 1.0848000000 0.6433000000 0.0000000000
| 18> N 0.0000000000 1.1328000000 0.0000000000
| 19> Na -0.5917000000 -1.0717000000 0.0000000000
| 20> *
| 21> 
| 22>                          ****END OF INPUT****
================================================================================

                       ****************************
                       * Single Point Calculation *
                       ****************************

---------------------------------
CARTESIAN COORDINATES (ANGSTROEM)
---------------------------------
  C      1.084800    0.643300    0.000000
  N      0.000000    1.132800    0.000000
  Na    -0.591700   -1.071700    0.000000

----------------------------
CARTESIAN COORDINATES (A.U.)
----------------------------
  NO LB      ZA    FRAG     MASS         X           Y           Z
   0 C     6.0000    0    12.011    2.049975    1.215661    0.000000
   1 N     7.0000    0    14.007    0.000000    2.140682    0.000000
   2 Na   11.0000    0    22.990   -1.118151   -2.025219    0.000000

--------------------------------
INTERNAL COORDINATES (ANGSTROEM)
--------------------------------
 C      0   0   0     0.000000000000     0.00000000     0.00000000
 N      1   0   0     1.190126585704     0.00000000     0.00000000
 Na     2   1   0     2.282526919885    80.73781782     0.00000000

---------------------------
INTERNAL COORDINATES (A.U.)
---------------------------
 C      0   0   0     0.000000000000     0.00000000     0.00000000
 N      1   0   0     2.249013311680     0.00000000     0.00000000
 Na     2   1   0     4.313350771886    80.73781782     0.00000000

---------------------
BASIS SET INFORMATION
---------------------
There are 3 groups of distinct atoms

 Group   1 Type C   : 28s12p7d4f3g2h contracted to 9s8p7d4f3g2h pattern {11101111111/51111111/1111111/1111/111/11}
 Group   2 Type N   : 27s12p7d4f3g2h contracted to 9s8p7d4f3g2h pattern {1191111111/51111111/1111111/1111/111/11}
 Group   3 Type Na  : 44s16p4d3f2g contracted to 8s6p4d3f2g pattern {15111311111/1111111/1111/111/11}

Atom   0C    basis set group =>   1
Atom   1N    basis set group =>   2
Atom   2Na   basis set group =>   3
------------------------------------------------------------------------------
                           ORCA GTO INTEGRAL CALCULATION
------------------------------------------------------------------------------

                         BASIS SET STATISTICS AND STARTUP INFO

 # of primitive gaussian shells          ...  180
 # of primitive gaussian functions       ...  502
 # of contracted shells                  ...   89
 # of contracted basis functions         ...  375
 Highest angular momentum                ...    5
 Maximum contraction depth               ...   15
 Integral package used                   ... LIBINT
 Integral threshhold            Thresh   ...  1.000e-12
 Primitive cut-off              TCut     ...  1.000e-14


------------------------------ INTEGRAL EVALUATION ----------------------------


 * One electron integrals 
 Pre-screening matrix                    ... done
 Shell pair data                         ... done (   0.002 sec)

-------------------------------------------------------------------------------
                                 ORCA SCF
-------------------------------------------------------------------------------

------------
SCF SETTINGS
------------
Hamiltonian:
 Density Functional     Method          .... DFT(GTOs)
 Exchange Functional    Exchange        .... PBE
   PBE kappa parameter   XKappa         ....  0.804000
   PBE mue parameter    XMuePBE         ....  0.219520
 Correlation Functional Correlation     .... PBE
   PBE beta parameter  CBetaPBE         ....  0.066725
 LDA part of GGA corr.  LDAOpt          .... PW91-LDA
 Gradients option       PostSCFGGA      .... off
   Density functional embedding theory  .... OFF
   NL short-range parameter             ....  6.400000


General Settings:
 Integral files         IntName         .... nacn_pbe
 Hartree-Fock type      HFTyp           .... UHF
 Total Charge           Charge          ....    0
 Multiplicity           Mult            ....    1
 Number of Electrons    NEL             ....   24
 Basis Dimension        Dim             ....  375
 Nuclear Repulsion      ENuc            ....     51.0890517879 Eh

Convergence Acceleration:
 DIIS                   CNVDIIS         .... on
   Start iteration      DIISMaxIt       ....    12
   Startup error        DIISStart       ....  0.200000
   # of expansion vecs  DIISMaxEq       ....     5
   Bias factor          DIISBfac        ....   1.050
   Max. coefficient     DIISMaxC        ....  10.000
 Newton-Raphson         CNVNR           .... off
 SOSCF                  CNVSOSCF        .... off
 Level Shifting         CNVShift        .... on
   Level shift para.    LevelShift      ....    0.2500
   Turn off err/grad.   ShiftErr        ....    0.0010
 Zerner damping         CNVZerner       .... off
 Static damping         CNVDamp         .... on
   Fraction old density DampFac         ....    0.7000
   Max. Damping (<1)    DampMax         ....    0.9800
   Min. Damping (>=0)   DampMin         ....    0.0000
   Turn off err/grad.   DampErr         ....    0.1000
 Fernandez-Rico         CNVRico         .... off

SCF Procedure:
 Maximum # iterations   MaxIter         ....   200
 SCF integral mode      SCFMode         .... Direct
   Integral package                     .... LIBINT
 Reset frequency        DirectResetFreq ....    20
 Integral Threshold     Thresh          ....  1.000e-12 Eh
 Primitive CutOff       TCut            ....  1.000e-14 Eh

Convergence Tolerance:
 Convergence Check Mode ConvCheckMode   .... Total+1el-Energy
 Convergence forced     ConvForced      .... 0
 Energy Change          TolE            ....  1.000e-09 Eh
 1-El. energy change                    ....  1.000e-06 Eh
 DIIS Error             TolErr          ....  1.000e-08


Diagonalization of the overlap matrix:
Smallest eigenvalue                        ... 8.473e-07
Time for diagonalization                   ...    0.107 sec
Threshold for overlap eigenvalues          ... 1.000e-08
Number of eigenvalues below threshold      ... 0
Time for construction of square roots      ...    0.016 sec
Total time needed                          ...    0.123 sec

-------------------
DFT GRID GENERATION
-------------------

General Integration Accuracy     IntAcc      ...  5.670
Radial Grid Type                 RadialGrid  ... Gauss-Chebyshev
Angular Grid (max. acc.)         AngularGrid ... Lebedev-770
Angular grid pruning method      GridPruning ... 3 (G Style)
Weight generation scheme         WeightScheme... Becke
Basis function cutoff            BFCut       ...    1.0000e-12
Integration weight cutoff        WCut        ...    1.0000e-14
Grids for H and He will be reduced by one unit

# of grid points (after initial pruning)     ...  76324 (   0.0 sec)
# of grid points (after weights+screening)   ...  75865 (   0.0 sec)
nearest neighbour list constructed           ...    0.0 sec
Grid point re-assignment to atoms done       ...    0.0 sec
Grid point division into batches done        ...    1.5 sec
Reduced shell lists constructed in    2.3 sec

Total number of grid points                  ...    75865
Total number of batches                      ...     1188
Average number of points per batch           ...       63
Average number of grid points per atom       ...    25288
Average number of shells per batch           ...    66.18 (74.36%)
Average number of basis functions per batch  ...   282.90 (75.44%)
Average number of large shells per batch     ...    59.46 (89.85%)
Average number of large basis fcns per batch ...   254.28 (89.88%)
Maximum spatial batch extension              ...  40.31, 32.63, 41.03 au
Average spatial batch extension              ...   2.91,  2.85,  2.98 au

Time for grid setup =    2.353 sec

------------------------------
INITIAL GUESS: MODEL POTENTIAL
------------------------------
Loading Hartree-Fock densities                     ... done
Calculating cut-offs                               ... done
Setting up the integral package                    ... done
Initializing the effective Hamiltonian             ... done
Starting the Coulomb interaction                   ... done (   0.1 sec)
Reading the grid                                   ... done
Mapping shells                                     ... done
Starting the XC term evaluation                    ... done (   4.2 sec)
  promolecular density results
     # of electrons  =     23.999999185
     EX              =    -25.467088883
     EC              =     -0.781764436
     EX+EC           =    -26.248853320
Transforming the Hamiltonian                       ... done (   0.0 sec)
Diagonalizing the Hamiltonian                      ... done (   0.0 sec)
Back transforming the eigenvectors                 ... done (   0.0 sec)
Now organizing SCF variables                       ... done
                      ------------------
                      INITIAL GUESS DONE (   6.9 sec)
                      ------------------
--------------
SCF ITERATIONS
--------------
ITER       Energy         Delta-E        Max-DP      RMS-DP      [F,P]     Damp
               ***  Starting incremental Fock matrix formation  ***
  0   -254.8486246070   0.000000000000 0.02652919  0.00033040  0.2665984 0.7000
  1   -254.9124225969  -0.063797989911 0.02575728  0.00023274  0.0897338 0.7000
                               ***Turning on DIIS***
  2   -254.9302917714  -0.017869174468 0.03544239  0.00037492  0.0398912 0.0000
  3   -254.9613497442  -0.031057972832 0.02076158  0.00017401  0.0479520 0.0000
  4   -254.9692685374  -0.007918793225 0.00438684  0.00004667  0.0432106 0.0000
  5   -254.9719425735  -0.002674036047 0.00449936  0.00003036  0.0125955 0.0000
  6   -254.9722100390  -0.000267465540 0.00271540  0.00001660  0.0026587 0.0000
  7   -254.9722353927  -0.000025353720 0.00228280  0.00001460  0.0009808 0.0000
  8   -254.9722430925  -0.000007699750 0.00025254  0.00000267  0.0002756 0.0000
  9   -254.9722432649  -0.000000172379 0.00013358  0.00000091  0.0002605 0.0000
 10   -254.9722433547  -0.000000089836 0.00004501  0.00000025  0.0000206 0.0000
 11   -254.9722433555  -0.000000000827 0.00001615  0.00000011  0.0000058 0.0000
 12   -254.9722433557  -0.000000000122 0.00000737  0.00000008  0.0000011 0.0000
 13   -254.9722433557  -0.000000000008 0.00001371  0.00000016  0.0000003 0.0000
 14   -254.9722433557  -0.000000000004 0.00001964  0.00000026  0.0000003 0.0000
                 **** Energy Check signals convergence ****

               *****************************************************
               *                     SUCCESS                       *
               *           SCF CONVERGED AFTER  15 CYCLES          *
               *****************************************************


----------------
TOTAL SCF ENERGY
----------------

Total Energy       :         -254.97224336 Eh           -6938.14747 eV

Components:
Nuclear Repulsion  :           51.08905179 Eh            1390.20378 eV
Electronic Energy  :         -306.06129514 Eh           -8328.35125 eV
One Electron Energy:         -455.54073579 Eh          -12395.89362 eV
Two Electron Energy:          149.47944064 Eh            4067.54237 eV

Virial components:
Potential Energy   :         -509.37974202 Eh          -13860.92746 eV
Kinetic Energy     :          254.40749866 Eh            6922.77999 eV
Virial Ratio       :            2.00221984


DFT components:
N(Alpha)           :       12.000000062645 electrons
N(Beta)            :       12.000000062645 electrons
N(Total)           :       24.000000125289 electrons
E(X)               :      -25.696951232572 Eh       
E(C)               :       -0.799016195145 Eh       
E(XC)              :      -26.495967427717 Eh       
DFET-embed. en.    :        0.000000000000 Eh       

---------------
SCF CONVERGENCE
---------------

  Last Energy change         ...    5.8549e-12  Tolerance :   1.0000e-09
  Last MAX-Density change    ...    7.3128e-05  Tolerance :   1.0000e-08
  Last RMS-Density change    ...    5.9808e-07  Tolerance :   1.0000e-09
  Last DIIS Error            ...    5.7152e-08  Tolerance :   1.0000e-08

             **** THE GBW FILE WAS UPDATED (nacn_pbe.gbw) ****
             **** DENSITY FILE WAS UPDATED (nacn_pbe.scfp.tmp) ****
             **** ENERGY FILE WAS UPDATED (nacn_pbe.en.tmp) ****
----------------------
UHF SPIN CONTAMINATION
----------------------

Warning: in a DFT calculation there is little theoretical justification to 
         calculate <S**2> as in Hartree-Fock theory. We will do it anyways
         but you should keep in mind that the values have only limited relevance

Expectation value of <S**2>     :     0.000000
Ideal value S*(S+1) for S=0.0   :     0.000000
Deviation                       :     0.000000

----------------
ORBITAL ENERGIES
----------------
                 SPIN UP ORBITALS
  NO   OCC          E(Eh)            E(eV) 
   0   1.0000     -37.942242     -1032.4609 
   1   1.0000     -13.919593      -378.7714 
   2   1.0000      -9.838850      -267.7287 
   3   1.0000      -2.109967       -57.4151 
   4   1.0000      -1.086308       -29.5600 
   5   1.0000      -1.085821       -29.5467 
   6   1.0000      -1.084354       -29.5068 
   7   1.0000      -0.751765       -20.4566 
   8   1.0000      -0.317895        -8.6504 
   9   1.0000      -0.260077        -7.0771 
  10   1.0000      -0.245335        -6.6759 
  11   1.0000      -0.198603        -5.4043 
  12   0.0000      -0.081679        -2.2226 
  13   0.0000      -0.014644        -0.3985 
  14   0.0000      -0.011474        -0.3122 
  15   0.0000      -0.000669        -0.0182 
  16   0.0000       0.008801         0.2395 
  17   0.0000       0.012507         0.3403 
  18   0.0000       0.015819         0.4305 
  19   0.0000       0.024562         0.6684 
  20   0.0000       0.025560         0.6955 
  21   0.0000       0.027185         0.7397 
  22   0.0000       0.033327         0.9069 
  23   0.0000       0.034518         0.9393 
  24   0.0000       0.037038         1.0079 
  25   0.0000       0.037588         1.0228 
  26   0.0000       0.040428         1.1001 
  27   0.0000       0.052103         1.4178 
  28   0.0000       0.058498         1.5918 
  29   0.0000       0.059698         1.6245 
  30   0.0000       0.061051         1.6613 
  31   0.0000       0.066090         1.7984 
  32   0.0000       0.066202         1.8014 
  33   0.0000       0.074955         2.0396 
  34   0.0000       0.075791         2.0624 
  35   0.0000       0.078071         2.1244 
  36   0.0000       0.082378         2.2416 
  37   0.0000       0.082700         2.2504 
  38   0.0000       0.087395         2.3781 
  39   0.0000       0.092797         2.5251 
  40   0.0000       0.098134         2.6704 
  41   0.0000       0.098784         2.6880 
  42   0.0000       0.104905         2.8546 
  43   0.0000       0.109385         2.9765 
  44   0.0000       0.111013         3.0208 
  45   0.0000       0.115801         3.1511 
  46   0.0000       0.123476         3.3599 
  47   0.0000       0.126230         3.4349 
  48   0.0000       0.131570         3.5802 
  49   0.0000       0.132235         3.5983 
  50   0.0000       0.134675         3.6647 
  51   0.0000       0.134717         3.6658 
  52   0.0000       0.136419         3.7121 
  53   0.0000       0.138533         3.7697 
  54   0.0000       0.144388         3.9290 
  55   0.0000       0.146859         3.9962 
  56   0.0000       0.154482         4.2037 
  57   0.0000       0.164158         4.4670 
  58   0.0000       0.171571         4.6687 
  59   0.0000       0.174951         4.7607 
  60   0.0000       0.181059         4.9269 
  61   0.0000       0.184200         5.0123 
  62   0.0000       0.194551         5.2940 
  63   0.0000       0.200598         5.4585 
  64   0.0000       0.205792         5.5999 
  65   0.0000       0.211077         5.7437 
  66   0.0000       0.216126         5.8811 
  67   0.0000       0.231012         6.2862 
  68   0.0000       0.238490         6.4897 
  69   0.0000       0.249686         6.7943 
  70   0.0000       0.249989         6.8025 
  71   0.0000       0.261900         7.1267 
  72   0.0000       0.263656         7.1745 
  73   0.0000       0.266292         7.2462 
  74   0.0000       0.276193         7.5156 
  75   0.0000       0.277243         7.5442 
  76   0.0000       0.286888         7.8066 
  77   0.0000       0.291535         7.9331 
  78   0.0000       0.292714         7.9651 
  79   0.0000       0.299318         8.1448 
  80   0.0000       0.308919         8.4061 
  81   0.0000       0.326929         8.8962 
  82   0.0000       0.333532         9.0759 
  83   0.0000       0.347521         9.4565 
  84   0.0000       0.367586        10.0025 
  85   0.0000       0.370997        10.0953 
  86   0.0000       0.379867        10.3367 
  87   0.0000       0.390754        10.6329 
  88   0.0000       0.395080        10.7507 
  89   0.0000       0.400890        10.9088 
  90   0.0000       0.406226        11.0540 
  91   0.0000       0.411700        11.2029 
  92   0.0000       0.425104        11.5677 
  93   0.0000       0.427472        11.6321 
  94   0.0000       0.428043        11.6476 
  95   0.0000       0.443945        12.0803 
  96   0.0000       0.453114        12.3299 
  97   0.0000       0.464016        12.6265 
  98   0.0000       0.464432        12.6378 
  99   0.0000       0.473216        12.8769 
 100   0.0000       0.484059        13.1719 
 101   0.0000       0.504740        13.7347 
 102   0.0000       0.518152        14.0996 
 103   0.0000       0.519838        14.1455 
 104   0.0000       0.532302        14.4847 
 105   0.0000       0.543055        14.7773 
 106   0.0000       0.553557        15.0631 
 107   0.0000       0.559319        15.2198 
 108   0.0000       0.566995        15.4287 
 109   0.0000       0.572370        15.5750 
 110   0.0000       0.573150        15.5962 
 111   0.0000       0.576432        15.6855 
 112   0.0000       0.590460        16.0672 
 113   0.0000       0.594207        16.1692 
 114   0.0000       0.611218        16.6321 
 115   0.0000       0.615016        16.7354 
 116   0.0000       0.620832        16.8937 
 117   0.0000       0.629869        17.1396 
 118   0.0000       0.638701        17.3799 
 119   0.0000       0.641127        17.4460 
 120   0.0000       0.647187        17.6109 
 121   0.0000       0.657063        17.8796 
 122   0.0000       0.659843        17.9552 
 123   0.0000       0.666860        18.1462 
 124   0.0000       0.676492        18.4083 
 125   0.0000       0.679575        18.4922 
 126   0.0000       0.685438        18.6517 
 127   0.0000       0.690750        18.7963 
 128   0.0000       0.700223        19.0540 
 129   0.0000       0.701781        19.0964 
 130   0.0000       0.709428        19.3045 
 131   0.0000       0.753443        20.5022 
 132   0.0000       0.766609        20.8605 
 133   0.0000       0.783134        21.3102 
 134   0.0000       0.791736        21.5442 
 135   0.0000       0.804949        21.9038 
 136   0.0000       0.830297        22.5935 
 137   0.0000       0.837820        22.7982 
 138   0.0000       0.848642        23.0927 
 139   0.0000       0.850266        23.1369 
 140   0.0000       0.882982        24.0272 
 141   0.0000       0.888109        24.1667 
 142   0.0000       0.893473        24.3126 
 143   0.0000       0.902866        24.5682 
 144   0.0000       0.911754        24.8101 
 145   0.0000       0.919694        25.0261 
 146   0.0000       0.932243        25.3676 
 147   0.0000       0.946947        25.7677 
 148   0.0000       0.969347        26.3773 
 149   0.0000       0.971130        26.4258 
 150   0.0000       0.979628        26.6570 
 151   0.0000       0.993465        27.0336 
 152   0.0000       1.013583        27.5810 
 153   0.0000       1.016165        27.6513 
 154   0.0000       1.022541        27.8248 
 155   0.0000       1.032650        28.0998 
 156   0.0000       1.042876        28.3781 
 157   0.0000       1.054217        28.6867 
 158   0.0000       1.078612        29.3505 
 159   0.0000       1.101642        29.9772 
 160   0.0000       1.111384        30.2423 
 161   0.0000       1.118052        30.4237 
 162   0.0000       1.124525        30.5999 
 163   0.0000       1.133755        30.8510 
 164   0.0000       1.160082        31.5674 
 165   0.0000       1.194752        32.5109 
 166   0.0000       1.234325        33.5877 
 167   0.0000       1.265290        34.4303 
 168   0.0000       1.266241        34.4562 
 169   0.0000       1.281566        34.8732 
 170   0.0000       1.305047        35.5121 
 171   0.0000       1.377137        37.4738 
 172   0.0000       1.385666        37.7059 
 173   0.0000       1.406914        38.2841 
 174   0.0000       1.451437        39.4956 
 175   0.0000       1.452413        39.5222 
 176   0.0000       1.483837        40.3773 
 177   0.0000       1.487118        40.4665 
 178   0.0000       1.502783        40.8928 
 179   0.0000       1.521185        41.3935 
 180   0.0000       1.522874        41.4395 
 181   0.0000       1.523927        41.4682 
 182   0.0000       1.560515        42.4638 
 183   0.0000       1.584247        43.1096 
 184   0.0000       1.592000        43.3205 
 185   0.0000       1.614580        43.9349 
 186   0.0000       1.628623        44.3171 
 187   0.0000       1.638739        44.5923 
 188   0.0000       1.650259        44.9058 
 189   0.0000       1.698591        46.2210 
 190   0.0000       1.703904        46.3656 
 191   0.0000       1.740279        47.3554 
 192   0.0000       1.760010        47.8923 
 193   0.0000       1.794300        48.8254 
 194   0.0000       1.833893        49.9028 
 195   0.0000       1.932433        52.5842 
 196   0.0000       1.974469        53.7280 
 197   0.0000       2.043375        55.6031 
 198   0.0000       2.051628        55.8276 
 199   0.0000       2.136546        58.1384 
 200   0.0000       2.159258        58.7564 
 201   0.0000       2.161739        58.8239 
 202   0.0000       2.197315        59.7920 
 203   0.0000       2.221217        60.4424 
 204   0.0000       2.227378        60.6100 
 205   0.0000       2.243787        61.0566 
 206   0.0000       2.289537        62.3015 
 207   0.0000       2.318134        63.0796 
 208   0.0000       2.365742        64.3751 
 209   0.0000       2.379432        64.7476 
 210   0.0000       2.452271        66.7297 
 211   0.0000       2.472450        67.2788 
 212   0.0000       2.622049        71.3496 
 213   0.0000       2.677393        72.8556 
 214   0.0000       2.766459        75.2792 
 215   0.0000       2.773882        75.4812 
 216   0.0000       3.060755        83.2874 
 217   0.0000       3.065604        83.4193 
 218   0.0000       3.105235        84.4977 
 219   0.0000       3.178129        86.4813 
 220   0.0000       3.180667        86.5504 
 221   0.0000       3.226721        87.8035 
 222   0.0000       3.286325        89.4255 
 223   0.0000       3.405358        92.6645 
 224   0.0000       3.781191       102.8914 
 225   0.0000       3.865343       105.1813 
 226   0.0000       3.873709       105.4090 
 227   0.0000       3.979382       108.2845 
 228   0.0000       3.980110       108.3043 
 229   0.0000       4.013213       109.2051 
 230   0.0000       4.014111       109.2295 
 231   0.0000       4.049248       110.1856 
 232   0.0000       4.071920       110.8026 
 233   0.0000       4.084964       111.1575 
 234   0.0000       4.095057       111.4322 
 235   0.0000       4.157825       113.1402 
 236   0.0000       4.165125       113.3388 
 237   0.0000       4.213685       114.6602 
 238   0.0000       4.228583       115.0656 
 239   0.0000       4.253828       115.7526 
 240   0.0000       4.275512       116.3426 
 241   0.0000       4.459367       121.3455 
 242   0.0000       4.482934       121.9868 
 243   0.0000       4.530895       123.2919 
 244   0.0000       4.587655       124.8364 
 245   0.0000       4.596190       125.0687 
 246   0.0000       4.724514       128.5606 
 247   0.0000       4.754279       129.3705 
 248   0.0000       4.783282       130.1597 
 249   0.0000       4.784289       130.1871 
 250   0.0000       4.796048       130.5071 
 251   0.0000       4.866920       132.4356 
 252   0.0000       4.907820       133.5486 
 253   0.0000       4.916285       133.7789 
 254   0.0000       5.024458       136.7225 
 255   0.0000       5.059258       137.6694 
 256   0.0000       5.142366       139.9309 
 257   0.0000       5.233011       142.3975 
 258   0.0000       5.268937       143.3751 
 259   0.0000       5.302992       144.3017 
 260   0.0000       5.343454       145.4028 
 261   0.0000       5.386021       146.5611 
 262   0.0000       5.591310       152.1473 
 263   0.0000       5.621924       152.9803 
 264   0.0000       5.634495       153.3224 
 265   0.0000       5.659043       153.9904 
 266   0.0000       5.700398       155.1157 
 267   0.0000       5.711045       155.4054 
 268   0.0000       5.972949       162.5322 
 269   0.0000       6.011385       163.5781 
 270   0.0000       6.089446       165.7022 
 271   0.0000       6.283633       170.9863 
 272   0.0000       6.333699       172.3487 
 273   0.0000       6.346668       172.7016 
 274   0.0000       6.377876       173.5508 
 275   0.0000       6.514533       177.2695 
 276   0.0000       6.663627       181.3265 
 277   0.0000       6.760139       183.9527 
 278   0.0000       6.840352       186.1355 
 279   0.0000       6.907060       187.9506 
 280   0.0000       6.981377       189.9729 
 281   0.0000       7.129415       194.0013 
 282   0.0000       7.233453       196.8323 
 283   0.0000       7.826872       212.9800 
 284   0.0000       8.130133       221.2322 
 285   0.0000       8.280607       225.3268 
 286   0.0000       8.323233       226.4867 
 287   0.0000       9.194411       250.1926 
 288   0.0000       9.337489       254.0860 
 289   0.0000       9.774152       265.9682 
 290   0.0000      10.181008       277.0393 
 291   0.0000      10.210223       277.8343 
 292   0.0000      10.236636       278.5530 
 293   0.0000      10.243733       278.7461 
 294   0.0000      10.357871       281.8520 
 295   0.0000      10.457266       284.5567 
 296   0.0000      10.462050       284.6869 
 297   0.0000      10.469786       284.8974 
 298   0.0000      10.534170       286.6493 
 299   0.0000      10.626426       289.1598 
 300   0.0000      10.627878       289.1993 
 301   0.0000      10.847259       295.1689 
 302   0.0000      10.847267       295.1692 
 303   0.0000      10.891210       296.3649 
 304   0.0000      11.067460       301.1609 
 305   0.0000      11.083741       301.6039 
 306   0.0000      11.365656       309.2752 
 307   0.0000      11.409711       310.4740 
 308   0.0000      11.469287       312.0952 
 309   0.0000      11.469514       312.1013 
 310   0.0000      11.501320       312.9668 
 311   0.0000      11.554804       314.4222 
 312   0.0000      11.581793       315.1566 
 313   0.0000      11.587772       315.3193 
 314   0.0000      11.626853       316.3828 
 315   0.0000      11.658450       317.2425 
 316   0.0000      11.723195       319.0044 
 317   0.0000      11.736929       319.3781 
 318   0.0000      11.747595       319.6683 
 319   0.0000      11.930041       324.6329 
 320   0.0000      11.931376       324.6692 
 321   0.0000      12.021365       327.1180 
 322   0.0000      12.024339       327.1989 
 323   0.0000      12.118937       329.7730 
 324   0.0000      12.134304       330.1912 
 325   0.0000      12.479127       339.5743 
 326   0.0000      12.508808       340.3820 
 327   0.0000      12.654941       344.3584 
 328   0.0000      12.684214       345.1550 
 329   0.0000      12.859026       349.9119 
 330   0.0000      12.985481       353.3529 
 331   0.0000      12.986737       353.3871 
 332   0.0000      13.541653       368.4871 
 333   0.0000      13.719453       373.3253 
 334   0.0000      13.742307       373.9472 
 335   0.0000      14.388878       391.5413 
 336   0.0000      14.410200       392.1215 
 337   0.0000      14.601146       397.3174 
 338   0.0000      14.616080       397.7238 
 339   0.0000      14.671432       399.2300 
 340   0.0000      15.019451       408.7000 
 341   0.0000      15.032173       409.0462 
 342   0.0000      15.387833       418.7242 
 343   0.0000      15.404799       419.1859 
 344   0.0000      15.576933       423.8699 
 345   0.0000      15.826227       430.6535 
 346   0.0000      15.881650       432.1617 
 347   0.0000      16.008417       435.6112 
 348   0.0000      16.743941       455.6258 
 349   0.0000      16.792121       456.9368 
 350   0.0000      16.997280       462.5195 
 351   0.0000      17.074475       464.6201 
 352   0.0000      17.698502       481.6007 
 353   0.0000      17.723918       482.2923 
 354   0.0000      17.738319       482.6842 
 355   0.0000      18.672672       508.1092 
 356   0.0000      19.087428       519.3953 
 357   0.0000      19.126799       520.4667 
 358   0.0000      21.475373       584.3746 
 359   0.0000      24.030744       653.9098 
 360   0.0000      26.151693       711.6237 
 361   0.0000      26.317538       716.1366 
 362   0.0000      27.939819       760.2811 
 363   0.0000      31.965929       869.8372 
 364   0.0000      32.033336       871.6714 
 365   0.0000      32.916425       895.7015 
 366   0.0000      32.925839       895.9576 
 367   0.0000      34.433393       936.9803 
 368   0.0000      47.784232      1300.2750 
 369   0.0000      47.838133      1301.7418 
 370   0.0000      48.024167      1306.8040 
 371   0.0000      48.072595      1308.1218 
 372   0.0000      48.965209      1332.4111 
 373   0.0000      74.224935      2019.7632 
 374   0.0000     104.150122      2834.0689 

                 SPIN DOWN ORBITALS
  NO   OCC          E(Eh)            E(eV) 
   0   1.0000     -37.942242     -1032.4609 
   1   1.0000     -13.919593      -378.7714 
   2   1.0000      -9.838850      -267.7287 
   3   1.0000      -2.109967       -57.4151 
   4   1.0000      -1.086308       -29.5600 
   5   1.0000      -1.085821       -29.5467 
   6   1.0000      -1.084354       -29.5068 
   7   1.0000      -0.751765       -20.4566 
   8   1.0000      -0.317895        -8.6504 
   9   1.0000      -0.260077        -7.0771 
  10   1.0000      -0.245335        -6.6759 
  11   1.0000      -0.198603        -5.4043 
  12   0.0000      -0.081679        -2.2226 
  13   0.0000      -0.014644        -0.3985 
  14   0.0000      -0.011474        -0.3122 
  15   0.0000      -0.000669        -0.0182 
  16   0.0000       0.008801         0.2395 
  17   0.0000       0.012507         0.3403 
  18   0.0000       0.015819         0.4305 
  19   0.0000       0.024562         0.6684 
  20   0.0000       0.025560         0.6955 
  21   0.0000       0.027185         0.7397 
  22   0.0000       0.033327         0.9069 
  23   0.0000       0.034518         0.9393 
  24   0.0000       0.037038         1.0079 
  25   0.0000       0.037588         1.0228 
  26   0.0000       0.040428         1.1001 
  27   0.0000       0.052103         1.4178 
  28   0.0000       0.058498         1.5918 
  29   0.0000       0.059698         1.6245 
  30   0.0000       0.061051         1.6613 
  31   0.0000       0.066090         1.7984 
  32   0.0000       0.066202         1.8014 
  33   0.0000       0.074955         2.0396 
  34   0.0000       0.075791         2.0624 
  35   0.0000       0.078071         2.1244 
  36   0.0000       0.082378         2.2416 
  37   0.0000       0.082700         2.2504 
  38   0.0000       0.087395         2.3781 
  39   0.0000       0.092797         2.5251 
  40   0.0000       0.098134         2.6704 
  41   0.0000       0.098784         2.6880 
  42   0.0000       0.104905         2.8546 
  43   0.0000       0.109385         2.9765 
  44   0.0000       0.111013         3.0208 
  45   0.0000       0.115801         3.1511 
  46   0.0000       0.123476         3.3599 
  47   0.0000       0.126230         3.4349 
  48   0.0000       0.131570         3.5802 
  49   0.0000       0.132235         3.5983 
  50   0.0000       0.134675         3.6647 
  51   0.0000       0.134717         3.6658 
  52   0.0000       0.136419         3.7121 
  53   0.0000       0.138533         3.7697 
  54   0.0000       0.144388         3.9290 
  55   0.0000       0.146859         3.9962 
  56   0.0000       0.154482         4.2037 
  57   0.0000       0.164158         4.4670 
  58   0.0000       0.171571         4.6687 
  59   0.0000       0.174951         4.7607 
  60   0.0000       0.181059         4.9269 
  61   0.0000       0.184200         5.0123 
  62   0.0000       0.194551         5.2940 
  63   0.0000       0.200598         5.4585 
  64   0.0000       0.205792         5.5999 
  65   0.0000       0.211077         5.7437 
  66   0.0000       0.216126         5.8811 
  67   0.0000       0.231012         6.2862 
  68   0.0000       0.238490         6.4897 
  69   0.0000       0.249686         6.7943 
  70   0.0000       0.249989         6.8025 
  71   0.0000       0.261900         7.1267 
  72   0.0000       0.263656         7.1745 
  73   0.0000       0.266292         7.2462 
  74   0.0000       0.276193         7.5156 
  75   0.0000       0.277243         7.5442 
  76   0.0000       0.286888         7.8066 
  77   0.0000       0.291535         7.9331 
  78   0.0000       0.292714         7.9651 
  79   0.0000       0.299318         8.1448 
  80   0.0000       0.308919         8.4061 
  81   0.0000       0.326929         8.8962 
  82   0.0000       0.333532         9.0759 
  83   0.0000       0.347521         9.4565 
  84   0.0000       0.367586        10.0025 
  85   0.0000       0.370997        10.0953 
  86   0.0000       0.379867        10.3367 
  87   0.0000       0.390754        10.6329 
  88   0.0000       0.395080        10.7507 
  89   0.0000       0.400890        10.9088 
  90   0.0000       0.406226        11.0540 
  91   0.0000       0.411700        11.2029 
  92   0.0000       0.425104        11.5677 
  93   0.0000       0.427472        11.6321 
  94   0.0000       0.428043        11.6476 
  95   0.0000       0.443945        12.0803 
  96   0.0000       0.453114        12.3299 
  97   0.0000       0.464016        12.6265 
  98   0.0000       0.464432        12.6378 
  99   0.0000       0.473216        12.8769 
 100   0.0000       0.484059        13.1719 
 101   0.0000       0.504740        13.7347 
 102   0.0000       0.518152        14.0996 
 103   0.0000       0.519838        14.1455 
 104   0.0000       0.532302        14.4847 
 105   0.0000       0.543055        14.7773 
 106   0.0000       0.553557        15.0631 
 107   0.0000       0.559319        15.2198 
 108   0.0000       0.566995        15.4287 
 109   0.0000       0.572370        15.5750 
 110   0.0000       0.573150        15.5962 
 111   0.0000       0.576432        15.6855 
 112   0.0000       0.590460        16.0672 
 113   0.0000       0.594207        16.1692 
 114   0.0000       0.611218        16.6321 
 115   0.0000       0.615016        16.7354 
 116   0.0000       0.620832        16.8937 
 117   0.0000       0.629869        17.1396 
 118   0.0000       0.638701        17.3799 
 119   0.0000       0.641127        17.4460 
 120   0.0000       0.647187        17.6109 
 121   0.0000       0.657063        17.8796 
 122   0.0000       0.659843        17.9552 
 123   0.0000       0.666860        18.1462 
 124   0.0000       0.676492        18.4083 
 125   0.0000       0.679575        18.4922 
 126   0.0000       0.685438        18.6517 
 127   0.0000       0.690750        18.7963 
 128   0.0000       0.700223        19.0540 
 129   0.0000       0.701781        19.0964 
 130   0.0000       0.709428        19.3045 
 131   0.0000       0.753443        20.5022 
 132   0.0000       0.766609        20.8605 
 133   0.0000       0.783134        21.3102 
 134   0.0000       0.791736        21.5442 
 135   0.0000       0.804949        21.9038 
 136   0.0000       0.830297        22.5935 
 137   0.0000       0.837820        22.7982 
 138   0.0000       0.848642        23.0927 
 139   0.0000       0.850266        23.1369 
 140   0.0000       0.882982        24.0272 
 141   0.0000       0.888109        24.1667 
 142   0.0000       0.893473        24.3126 
 143   0.0000       0.902866        24.5682 
 144   0.0000       0.911754        24.8101 
 145   0.0000       0.919694        25.0261 
 146   0.0000       0.932243        25.3676 
 147   0.0000       0.946947        25.7677 
 148   0.0000       0.969347        26.3773 
 149   0.0000       0.971130        26.4258 
 150   0.0000       0.979628        26.6570 
 151   0.0000       0.993465        27.0336 
 152   0.0000       1.013583        27.5810 
 153   0.0000       1.016165        27.6513 
 154   0.0000       1.022541        27.8248 
 155   0.0000       1.032650        28.0998 
 156   0.0000       1.042876        28.3781 
 157   0.0000       1.054217        28.6867 
 158   0.0000       1.078612        29.3505 
 159   0.0000       1.101642        29.9772 
 160   0.0000       1.111384        30.2423 
 161   0.0000       1.118052        30.4237 
 162   0.0000       1.124525        30.5999 
 163   0.0000       1.133755        30.8510 
 164   0.0000       1.160082        31.5674 
 165   0.0000       1.194752        32.5109 
 166   0.0000       1.234325        33.5877 
 167   0.0000       1.265290        34.4303 
 168   0.0000       1.266241        34.4562 
 169   0.0000       1.281566        34.8732 
 170   0.0000       1.305047        35.5121 
 171   0.0000       1.377137        37.4738 
 172   0.0000       1.385666        37.7059 
 173   0.0000       1.406914        38.2841 
 174   0.0000       1.451437        39.4956 
 175   0.0000       1.452413        39.5222 
 176   0.0000       1.483837        40.3773 
 177   0.0000       1.487118        40.4665 
 178   0.0000       1.502783        40.8928 
 179   0.0000       1.521185        41.3935 
 180   0.0000       1.522874        41.4395 
 181   0.0000       1.523927        41.4682 
 182   0.0000       1.560515        42.4638 
 183   0.0000       1.584247        43.1096 
 184   0.0000       1.592000        43.3205 
 185   0.0000       1.614580        43.9349 
 186   0.0000       1.628623        44.3171 
 187   0.0000       1.638739        44.5923 
 188   0.0000       1.650259        44.9058 
 189   0.0000       1.698591        46.2210 
 190   0.0000       1.703904        46.3656 
 191   0.0000       1.740279        47.3554 
 192   0.0000       1.760010        47.8923 
 193   0.0000       1.794300        48.8254 
 194   0.0000       1.833893        49.9028 
 195   0.0000       1.932433        52.5842 
 196   0.0000       1.974469        53.7280 
 197   0.0000       2.043375        55.6031 
 198   0.0000       2.051628        55.8276 
 199   0.0000       2.136546        58.1384 
 200   0.0000       2.159258        58.7564 
 201   0.0000       2.161739        58.8239 
 202   0.0000       2.197315        59.7920 
 203   0.0000       2.221217        60.4424 
 204   0.0000       2.227378        60.6100 
 205   0.0000       2.243787        61.0566 
 206   0.0000       2.289537        62.3015 
 207   0.0000       2.318134        63.0796 
 208   0.0000       2.365742        64.3751 
 209   0.0000       2.379432        64.7476 
 210   0.0000       2.452271        66.7297 
 211   0.0000       2.472450        67.2788 
 212   0.0000       2.622049        71.3496 
 213   0.0000       2.677393        72.8556 
 214   0.0000       2.766459        75.2792 
 215   0.0000       2.773882        75.4812 
 216   0.0000       3.060755        83.2874 
 217   0.0000       3.065604        83.4193 
 218   0.0000       3.105235        84.4977 
 219   0.0000       3.178129        86.4813 
 220   0.0000       3.180667        86.5504 
 221   0.0000       3.226721        87.8035 
 222   0.0000       3.286325        89.4255 
 223   0.0000       3.405358        92.6645 
 224   0.0000       3.781191       102.8914 
 225   0.0000       3.865343       105.1813 
 226   0.0000       3.873709       105.4090 
 227   0.0000       3.979382       108.2845 
 228   0.0000       3.980110       108.3043 
 229   0.0000       4.013213       109.2051 
 230   0.0000       4.014111       109.2295 
 231   0.0000       4.049248       110.1856 
 232   0.0000       4.071920       110.8026 
 233   0.0000       4.084964       111.1575 
 234   0.0000       4.095057       111.4322 
 235   0.0000       4.157825       113.1402 
 236   0.0000       4.165125       113.3388 
 237   0.0000       4.213685       114.6602 
 238   0.0000       4.228583       115.0656 
 239   0.0000       4.253828       115.7526 
 240   0.0000       4.275512       116.3426 
 241   0.0000       4.459367       121.3455 
 242   0.0000       4.482934       121.9868 
 243   0.0000       4.530895       123.2919 
 244   0.0000       4.587655       124.8364 
 245   0.0000       4.596190       125.0687 
 246   0.0000       4.724514       128.5606 
 247   0.0000       4.754279       129.3705 
 248   0.0000       4.783282       130.1597 
 249   0.0000       4.784289       130.1871 
 250   0.0000       4.796048       130.5071 
 251   0.0000       4.866920       132.4356 
 252   0.0000       4.907820       133.5486 
 253   0.0000       4.916285       133.7789 
 254   0.0000       5.024458       136.7225 
 255   0.0000       5.059258       137.6694 
 256   0.0000       5.142366       139.9309 
 257   0.0000       5.233011       142.3975 
 258   0.0000       5.268937       143.3751 
 259   0.0000       5.302992       144.3017 
 260   0.0000       5.343454       145.4028 
 261   0.0000       5.386021       146.5611 
 262   0.0000       5.591310       152.1473 
 263   0.0000       5.621924       152.9803 
 264   0.0000       5.634495       153.3224 
 265   0.0000       5.659043       153.9904 
 266   0.0000       5.700398       155.1157 
 267   0.0000       5.711045       155.4054 
 268   0.0000       5.972949       162.5322 
 269   0.0000       6.011385       163.5781 
 270   0.0000       6.089446       165.7022 
 271   0.0000       6.283633       170.9863 
 272   0.0000       6.333699       172.3487 
 273   0.0000       6.346668       172.7016 
 274   0.0000       6.377876       173.5508 
 275   0.0000       6.514533       177.2695 
 276   0.0000       6.663627       181.3265 
 277   0.0000       6.760139       183.9527 
 278   0.0000       6.840352       186.1355 
 279   0.0000       6.907060       187.9506 
 280   0.0000       6.981377       189.9729 
 281   0.0000       7.129415       194.0013 
 282   0.0000       7.233453       196.8323 
 283   0.0000       7.826872       212.9800 
 284   0.0000       8.130133       221.2322 
 285   0.0000       8.280607       225.3268 
 286   0.0000       8.323233       226.4867 
 287   0.0000       9.194411       250.1926 
 288   0.0000       9.337489       254.0860 
 289   0.0000       9.774152       265.9682 
 290   0.0000      10.181008       277.0393 
 291   0.0000      10.210223       277.8343 
 292   0.0000      10.236636       278.5530 
 293   0.0000      10.243733       278.7461 
 294   0.0000      10.357871       281.8520 
 295   0.0000      10.457266       284.5567 
 296   0.0000      10.462050       284.6869 
 297   0.0000      10.469786       284.8974 
 298   0.0000      10.534170       286.6493 
 299   0.0000      10.626426       289.1598 
 300   0.0000      10.627878       289.1993 
 301   0.0000      10.847259       295.1689 
 302   0.0000      10.847267       295.1692 
 303   0.0000      10.891210       296.3649 
 304   0.0000      11.067460       301.1609 
 305   0.0000      11.083741       301.6039 
 306   0.0000      11.365656       309.2752 
 307   0.0000      11.409711       310.4740 
 308   0.0000      11.469287       312.0952 
 309   0.0000      11.469514       312.1013 
 310   0.0000      11.501320       312.9668 
 311   0.0000      11.554804       314.4222 
 312   0.0000      11.581793       315.1566 
 313   0.0000      11.587772       315.3193 
 314   0.0000      11.626853       316.3828 
 315   0.0000      11.658450       317.2425 
 316   0.0000      11.723195       319.0044 
 317   0.0000      11.736929       319.3781 
 318   0.0000      11.747595       319.6683 
 319   0.0000      11.930041       324.6329 
 320   0.0000      11.931376       324.6692 
 321   0.0000      12.021365       327.1180 
 322   0.0000      12.024339       327.1989 
 323   0.0000      12.118937       329.7730 
 324   0.0000      12.134304       330.1912 
 325   0.0000      12.479127       339.5743 
 326   0.0000      12.508808       340.3820 
 327   0.0000      12.654941       344.3584 
 328   0.0000      12.684214       345.1550 
 329   0.0000      12.859026       349.9119 
 330   0.0000      12.985481       353.3529 
 331   0.0000      12.986737       353.3871 
 332   0.0000      13.541653       368.4871 
 333   0.0000      13.719453       373.3253 
 334   0.0000      13.742307       373.9472 
 335   0.0000      14.388878       391.5413 
 336   0.0000      14.410200       392.1215 
 337   0.0000      14.601146       397.3174 
 338   0.0000      14.616080       397.7238 
 339   0.0000      14.671432       399.2300 
 340   0.0000      15.019451       408.7000 
 341   0.0000      15.032173       409.0462 
 342   0.0000      15.387833       418.7242 
 343   0.0000      15.404799       419.1859 
 344   0.0000      15.576933       423.8699 
 345   0.0000      15.826227       430.6535 
 346   0.0000      15.881650       432.1617 
 347   0.0000      16.008417       435.6112 
 348   0.0000      16.743941       455.6258 
 349   0.0000      16.792121       456.9368 
 350   0.0000      16.997280       462.5195 
 351   0.0000      17.074475       464.6201 
 352   0.0000      17.698502       481.6007 
 353   0.0000      17.723918       482.2923 
 354   0.0000      17.738319       482.6842 
 355   0.0000      18.672672       508.1092 
 356   0.0000      19.087428       519.3953 
 357   0.0000      19.126799       520.4667 
 358   0.0000      21.475373       584.3746 
 359   0.0000      24.030744       653.9098 
 360   0.0000      26.151693       711.6237 
 361   0.0000      26.317538       716.1366 
 362   0.0000      27.939819       760.2811 
 363   0.0000      31.965929       869.8372 
 364   0.0000      32.033336       871.6714 
 365   0.0000      32.916425       895.7015 
 366   0.0000      32.925839       895.9576 
 367   0.0000      34.433393       936.9803 
 368   0.0000      47.784232      1300.2750 
 369   0.0000      47.838133      1301.7418 
 370   0.0000      48.024167      1306.8040 
 371   0.0000      48.072595      1308.1218 
 372   0.0000      48.965209      1332.4111 
 373   0.0000      74.224935      2019.7632 
 374   0.0000     104.150122      2834.0689 

                    ********************************
                    * MULLIKEN POPULATION ANALYSIS *
                    ********************************

--------------------------------------------
MULLIKEN ATOMIC CHARGES AND SPIN POPULATIONS
--------------------------------------------
   0 C :   -0.255435    0.000000
   1 N :   -0.431968   -0.000000
   2 Na:    0.687403    0.000000
Sum of atomic charges         :    0.0000000
Sum of atomic spin populations:   -0.0000000

-----------------------------------------------------
MULLIKEN REDUCED ORBITAL CHARGES AND SPIN POPULATIONS
-----------------------------------------------------
CHARGE
  0 C s       :     3.680280  s :     3.680280
      pz      :     0.737795  p :     2.519104
      px      :     1.016645
      py      :     0.764664
      dz2     :     0.003498  d :     0.054492
      dxz     :     0.022637
      dyz     :     0.002456
      dx2y2   :     0.013114
      dxy     :     0.012789
      f0      :     0.000964  f :     0.002970
      f+1     :     0.000282
      f-1     :     0.000023
      f+2     :     0.000812
      f-2     :     0.001035
      f+3     :    -0.000108
      f-3     :    -0.000038
      g0      :    -0.000015  g :    -0.000840
      g+1     :     0.000096
      g-1     :     0.000032
      g+2     :    -0.000103
      g-2     :    -0.000129
      g+3     :    -0.000074
      g-3     :     0.000236
      g+4     :    -0.000206
      g-4     :    -0.000679
      h0      :    -0.000058  h :    -0.000571
      h+1     :    -0.000012
      h-1     :    -0.000022
      h+2     :     0.000004
      h-2     :    -0.000064
      h+3     :    -0.000077
      h-3     :    -0.000054
      h+4     :    -0.000077
      h-4     :     0.000000
      h+5     :    -0.000036
      h-5     :    -0.000175
  1 N s       :     3.939974  s :     3.939974
      pz      :     1.179608  p :     3.448719
      px      :     1.169974
      py      :     1.099137
      dz2     :     0.003502  d :     0.051504
      dxz     :     0.010273
      dyz     :     0.004623
      dx2y2   :     0.019793
      dxy     :     0.013313
      f0      :    -0.000103  f :    -0.002757
      f+1     :    -0.000331
      f-1     :     0.000255
      f+2     :    -0.000351
      f-2     :     0.000029
      f+3     :     0.000106
      f-3     :    -0.002362
      g0      :    -0.000110  g :    -0.004076
      g+1     :     0.000142
      g-1     :    -0.000546
      g+2     :    -0.000349
      g-2     :    -0.000246
      g+3     :    -0.000418
      g-3     :    -0.000264
      g+4     :    -0.002040
      g-4     :    -0.000246
      h0      :    -0.000097  h :    -0.001396
      h+1     :    -0.000022
      h-1     :    -0.000042
      h+2     :    -0.000137
      h-2     :    -0.000033
      h+3     :    -0.000112
      h-3     :    -0.000163
      h+4     :    -0.000091
      h-4     :    -0.000122
      h+5     :     0.000028
      h-5     :    -0.000606
  2 Nas       :     4.111238  s :     4.111238
      pz      :     2.026914  p :     6.138836
      px      :     2.040035
      py      :     2.071887
      dz2     :     0.009669  d :     0.053926
      dxz     :     0.002707
      dyz     :     0.010218
      dx2y2   :     0.015451
      dxy     :     0.015880
      f0      :     0.000639  f :     0.007452
      f+1     :     0.000552
      f-1     :     0.001933
      f+2     :     0.000452
      f-2     :     0.000453
      f+3     :     0.002410
      f-3     :     0.001013
      g0      :     0.000169  g :     0.001145
      g+1     :     0.000024
      g-1     :     0.000152
      g+2     :     0.000114
      g-2     :     0.000207
      g+3     :     0.000126
      g-3     :     0.000008
      g+4     :     0.000157
      g-4     :     0.000187

SPIN
  0 C s       :     0.000000  s :     0.000000
      pz      :    -0.000000  p :     0.000000
      px      :     0.000000
      py      :     0.000000
      dz2     :     0.000000  d :     0.000000
      dxz     :    -0.000000
      dyz     :    -0.000000
      dx2y2   :     0.000000
      dxy     :     0.000000
      f0      :    -0.000000  f :     0.000000
      f+1     :     0.000000
      f-1     :     0.000000
      f+2     :     0.000000
      f-2     :     0.000000
      f+3     :     0.000000
      f-3     :     0.000000
      g0      :     0.000000  g :     0.000000
      g+1     :    -0.000000
      g-1     :     0.000000
      g+2     :     0.000000
      g-2     :     0.000000
      g+3     :     0.000000
      g-3     :     0.000000
      g+4     :     0.000000
      g-4     :     0.000000
      h0      :    -0.000000  h :     0.000000
      h+1     :     0.000000
      h-1     :     0.000000
      h+2     :     0.000000
      h-2     :    -0.000000
      h+3     :     0.000000
      h-3     :     0.000000
      h+4     :     0.000000
      h-4     :    -0.000000
      h+5     :     0.000000
      h-5     :     0.000000
  1 N s       :    -0.000000  s :    -0.000000
      pz      :     0.000000  p :    -0.000000
      px      :    -0.000000
      py      :     0.000000
      dz2     :    -0.000000  d :    -0.000000
      dxz     :     0.000000
      dyz     :    -0.000000
      dx2y2   :    -0.000000
      dxy     :    -0.000000
      f0      :     0.000000  f :     0.000000
      f+1     :    -0.000000
      f-1     :     0.000000
      f+2     :     0.000000
      f-2     :     0.000000
      f+3     :     0.000000
      f-3     :     0.000000
      g0      :     0.000000  g :     0.000000
      g+1     :     0.000000
      g-1     :     0.000000
      g+2     :     0.000000
      g-2     :     0.000000
      g+3     :     0.000000
      g-3     :    -0.000000
      g+4     :     0.000000
      g-4     :     0.000000
      h0      :     0.000000  h :     0.000000
      h+1     :     0.000000
      h-1     :    -0.000000
      h+2     :    -0.000000
      h-2     :    -0.000000
      h+3     :     0.000000
      h-3     :     0.000000
      h+4     :    -0.000000
      h-4     :     0.000000
      h+5     :    -0.000000
      h-5     :     0.000000
  2 Nas       :     0.000000  s :     0.000000
      pz      :     0.000000  p :     0.000000
      px      :    -0.000000
      py      :     0.000000
      dz2     :     0.000000  d :     0.000000
      dxz     :     0.000000
      dyz     :     0.000000
      dx2y2   :     0.000000
      dxy     :     0.000000
      f0      :     0.000000  f :     0.000000
      f+1     :     0.000000
      f-1     :     0.000000
      f+2     :    -0.000000
      f-2     :     0.000000
      f+3     :     0.000000
      f-3     :     0.000000
      g0      :     0.000000  g :     0.000000
      g+1     :     0.000000
      g-1     :     0.000000
      g+2     :     0.000000
      g-2     :     0.000000
      g+3     :     0.000000
      g-3     :    -0.000000
      g+4     :     0.000000
      g-4     :     0.000000


                     *******************************
                     * LOEWDIN POPULATION ANALYSIS *
                     *******************************

-------------------------------------------
LOEWDIN ATOMIC CHARGES AND SPIN POPULATIONS
-------------------------------------------
   0 C :   -0.506207    0.000000
   1 N :   -0.535913   -0.000000
   2 Na:    1.042120    0.000000

----------------------------------------------------
LOEWDIN REDUCED ORBITAL CHARGES AND SPIN POPULATIONS
----------------------------------------------------
CHARGE
  0 C s       :     3.067681  s :     3.067681
      pz      :     0.680344  p :     2.647752
      px      :     1.175084
      py      :     0.792324
      dz2     :     0.066320  d :     0.468040
      dxz     :     0.086093
      dyz     :     0.014412
      dx2y2   :     0.118783
      dxy     :     0.182432
      f0      :     0.015743  f :     0.166939
      f+1     :     0.021830
      f-1     :     0.011488
      f+2     :     0.010847
      f-2     :     0.015497
      f+3     :     0.045754
      f-3     :     0.045779
      g0      :     0.005642  g :     0.087942
      g+1     :     0.006848
      g-1     :     0.002647
      g+2     :     0.003022
      g-2     :     0.013365
      g+3     :     0.001918
      g-3     :     0.006046
      g+4     :     0.035109
      g-4     :     0.013345
      h0      :     0.002626  h :     0.067853
      h+1     :     0.004365
      h-1     :     0.003552
      h+2     :     0.000289
      h-2     :     0.005176
      h+3     :     0.006088
      h-3     :     0.007486
      h+4     :     0.004224
      h-4     :     0.000433
      h+5     :     0.017834
      h-5     :     0.015780
  1 N s       :     3.193169  s :     3.193169
      pz      :     1.017501  p :     3.575545
      px      :     1.436835
      py      :     1.121209
      dz2     :     0.058329  d :     0.343179
      dxz     :     0.038436
      dyz     :     0.014937
      dx2y2   :     0.125837
      dxy     :     0.105641
      f0      :     0.010739  f :     0.164578
      f+1     :     0.016612
      f-1     :     0.026129
      f+2     :     0.008942
      f-2     :     0.008791
      f+3     :     0.043291
      f-3     :     0.050074
      g0      :     0.009789  g :     0.136177
      g+1     :     0.003130
      g-1     :     0.008403
      g+2     :     0.020733
      g-2     :     0.007880
      g+3     :     0.003499
      g-3     :     0.006266
      g+4     :     0.031298
      g-4     :     0.045180
      h0      :     0.005939  h :     0.123265
      h+1     :     0.001829
      h-1     :     0.014144
      h+2     :     0.008602
      h-2     :     0.002826
      h+3     :     0.011358
      h-3     :     0.012771
      h+4     :     0.002313
      h-4     :     0.006441
      h+5     :     0.032805
      h-5     :     0.024236
  2 Nas       :     3.668161  s :     3.668161
      pz      :     1.944921  p :     6.016308
      px      :     1.996832
      py      :     2.074555
      dz2     :     0.026251  d :     0.148674
      dxz     :     0.006175
      dyz     :     0.022246
      dx2y2   :     0.044121
      dxy     :     0.049881
      f0      :     0.007248  f :     0.078856
      f+1     :     0.005284
      f-1     :     0.014099
      f+2     :     0.003157
      f-2     :     0.006023
      f+3     :     0.019466
      f-3     :     0.023579
      g0      :     0.003347  g :     0.045881
      g+1     :     0.001502
      g-1     :     0.005819
      g+2     :     0.004212
      g-2     :     0.004718
      g+3     :     0.002856
      g-3     :     0.000144
      g+4     :     0.012057
      g-4     :     0.011227

SPIN
  0 C s       :     0.000000  s :     0.000000
      pz      :     0.000000  p :     0.000000
      px      :     0.000000
      py      :     0.000000
      dz2     :    -0.000000  d :    -0.000000
      dxz     :    -0.000000
      dyz     :     0.000000
      dx2y2   :    -0.000000
      dxy     :    -0.000000
      f0      :    -0.000000  f :    -0.000000
      f+1     :    -0.000000
      f-1     :    -0.000000
      f+2     :    -0.000000
      f-2     :    -0.000000
      f+3     :    -0.000000
      f-3     :    -0.000000
      g0      :     0.000000  g :    -0.000000
      g+1     :    -0.000000
      g-1     :    -0.000000
      g+2     :    -0.000000
      g-2     :    -0.000000
      g+3     :     0.000000
      g-3     :    -0.000000
      g+4     :    -0.000000
      g-4     :     0.000000
      h0      :    -0.000000  h :     0.000000
      h+1     :    -0.000000
      h-1     :    -0.000000
      h+2     :     0.000000
      h-2     :    -0.000000
      h+3     :     0.000000
      h-3     :     0.000000
      h+4     :    -0.000000
      h-4     :    -0.000000
      h+5     :     0.000000
      h-5     :     0.000000
  1 N s       :    -0.000000  s :    -0.000000
      pz      :    -0.000000  p :    -0.000000
      px      :    -0.000000
      py      :    -0.000000
      dz2     :     0.000000  d :     0.000000
      dxz     :     0.000000
      dyz     :    -0.000000
      dx2y2   :     0.000000
      dxy     :     0.000000
      f0      :     0.000000  f :     0.000000
      f+1     :     0.000000
      f-1     :     0.000000
      f+2     :     0.000000
      f-2     :     0.000000
      f+3     :    -0.000000
      f-3     :     0.000000
      g0      :    -0.000000  g :     0.000000
      g+1     :     0.000000
      g-1     :     0.000000
      g+2     :     0.000000
      g-2     :     0.000000
      g+3     :    -0.000000
      g-3     :     0.000000
      g+4     :     0.000000
      g-4     :     0.000000
      h0      :     0.000000  h :    -0.000000
      h+1     :     0.000000
      h-1     :    -0.000000
      h+2     :     0.000000
      h-2     :    -0.000000
      h+3     :     0.000000
      h-3     :     0.000000
      h+4     :    -0.000000
      h-4     :    -0.000000
      h+5     :    -0.000000
      h-5     :     0.000000
  2 Nas       :    -0.000000  s :    -0.000000
      pz      :    -0.000000  p :     0.000000
      px      :    -0.000000
      py      :     0.000000
      dz2     :     0.000000  d :     0.000000
      dxz     :     0.000000
      dyz     :     0.000000
      dx2y2   :    -0.000000
      dxy     :     0.000000
      f0      :     0.000000  f :     0.000000
      f+1     :     0.000000
      f-1     :     0.000000
      f+2     :     0.000000
      f-2     :    -0.000000
      f+3     :     0.000000
      f-3     :    -0.000000
      g0      :     0.000000  g :     0.000000
      g+1     :    -0.000000
      g-1     :     0.000000
      g+2     :     0.000000
      g-2     :     0.000000
      g+3     :    -0.000000
      g-3     :     0.000000
      g+4     :     0.000000
      g-4     :     0.000000


                      *****************************
                      * MAYER POPULATION ANALYSIS *
                      *****************************

  NA   - Mulliken gross atomic population
  ZA   - Total nuclear charge
  QA   - Mulliken gross atomic charge
  VA   - Mayer's total valence
  BVA  - Mayer's bonded valence
  FA   - Mayer's free valence

  ATOM       NA         ZA         QA         VA         BVA        FA
  0 C      6.2554     6.0000    -0.2554     2.6473     2.6473     0.0000
  1 N      7.4320     7.0000    -0.4320     2.7900     2.7900    -0.0000
  2 Na    10.3126    11.0000     0.6874     0.5045     0.5045    -0.0000

  Mayer bond orders larger than 0.1
B(  0-C ,  1-N ) :   2.4664 B(  0-C ,  2-Na) :   0.1809 B(  1-N ,  2-Na) :   0.3236 


-------
TIMINGS
-------

Total SCF time: 0 days 1 hours 7 min 29 sec 

Total time                  ....    4049.492 sec
Sum of individual times     ....    4048.458 sec  (100.0%)

Fock matrix formation       ....    4039.471 sec  ( 99.8%)
  XC integration            ....     132.281 sec  (  3.3% of F)
    Basis function eval.    ....      10.444 sec  (  7.9% of XC)
    Density eval.           ....      30.020 sec  ( 22.7% of XC)
    XC-Functional eval.     ....       1.235 sec  (  0.9% of XC)
    XC-Potential eval.      ....      89.728 sec  ( 67.8% of XC)
Diagonalization             ....       1.335 sec  (  0.0%)
Density matrix formation    ....       0.032 sec  (  0.0%)
Population analysis         ....       0.142 sec  (  0.0%)
Initial guess               ....       4.512 sec  (  0.1%)
Orbital Transformation      ....       0.000 sec  (  0.0%)
Orbital Orthonormalization  ....       0.000 sec  (  0.0%)
DIIS solution               ....       0.612 sec  (  0.0%)
Grid generation             ....       2.353 sec  (  0.1%)

-------------------------   --------------------
FINAL SINGLE POINT ENERGY      -254.972243355656
-------------------------   --------------------


                            ***************************************
                            *     ORCA property calculations      *
                            ***************************************

                                    ---------------------
                                    Active property flags
                                    ---------------------
   (+) Dipole Moment
   (+) Polarizability


------------------------------------------------------------------------------
                       ORCA ELECTRIC PROPERTIES CALCULATION
------------------------------------------------------------------------------

Dipole Moment Calculation                       ... on
Quadrupole Moment Calculation                   ... off
Polarizability Calculation                      ... Analytic (CP-SCF)
GBWName                                         ... nacn_pbe.gbw
Electron density file                           ... nacn_pbe.scfp.tmp
The origin for moment calculation is the CENTER OF MASS  = (-0.022120, -0.040278  0.000000)

-------------
DIPOLE MOMENT
-------------
                                X             Y             Z
Electronic contribution:     -2.30502      -3.83263       0.00000
Nuclear contribution   :      0.53106       0.96800       0.00000
                        -----------------------------------------
Total Dipole Moment    :     -1.77396      -2.86463       0.00000
                        -----------------------------------------
Magnitude (a.u.)       :      3.36942
Magnitude (Debye)      :      8.56439



--------------------
Rotational spectrum 
--------------------
 
Rotational constants in cm-1:     1.854688     0.270089     0.235757 
Rotational constants in MHz : 55602.151725  8097.075355  7067.822217 

 Dipole components along the rotational axes: 
x,y,z [a.u.] :     3.367221     0.121822     0.000000 
x,y,z [Debye]:     8.558795     0.309646     0.000000 

 
Transforming and storing MO dipole integrals   ... done

                ... starting polarizability calculation

Opening the Dipole integral file               ... (nacn_pbe.dmo.tmp) done
Reading Dipole-MO integrals                    ... done
Solving CP-SCF equations                       ... 
------------------------------------------------------------------------------
                           ORCA CP-SCF CALCULATION
------------------------------------------------------------------------------

Input orbitals are from        ... nacn_pbe.gbw
Input Perturbation             ... nacn_pbe.cpv.tmp
Wavefunction output            ... nacn_pbe.cpu.tmp
Perturbation mode              ... Real perturbation (singlet)
Solver                         ... POPLE
Max. number of iterations      ... 200
Convergence tolerance          ... 1.000e-06
Integral handling              ... Direct
Number of perturbations        ... 3
Number of operators            ... 2
Orbital ranges used for CP-SCF:
 Operator 0:  Orbitals   0... 11  to  12...374
 Operator 1:  Orbitals   0... 11  to  12...374
DFT calculation                         ... on
Exchange functional (SCF)               ... PBE
Exchange functional (CP-SCF)            ... PBE
   PBE kappa parameter  XKappa (SCF)    ...  0.804000
   PBE kappa parameter  XKappa (CP-SCF) ...  0.804000
   PBE mue parameter   XMuePBE (SCF)    ...  0.219520
   PBE mue parameter   XMuePBE (CP-SCF) ...  0.219520
Correlation functional (SCF)            ... PBE
Correlation functional (CP-SCF)         ... PBE
   PBE beta parameter CBetaPBE (SCF)    ...  0.066725
   PBE beta parameter CBetaPBE (CP-SCF) ...  0.066725
 LDA part of GGA corr.  LDAOpt (SCF)    ... PW91-LDA
 LDA part of GGA corr.  LDAOpt (CP-SCF) ... PW91-LDA
Variables per vector in CP-SCF ... 8712
Number of vectors sought       ... 3
Recalculating density on grid  ... done
Calculating the xc-kernel      ... done
     CP-SCF ITERATION   0: 
     CP-SCF ITERATION   1:      2.869696324197
     CP-SCF ITERATION   2:      0.089889915687
     CP-SCF ITERATION   3:      0.007031386294
     CP-SCF ITERATION   4:      0.000071740581
     CP-SCF ITERATION   5:      0.000001453462
     CP-SCF ITERATION   6:      0.000000050752
done
Reading CP-SCF coefficients                    ... done
Doing the polarizability tensor   ... done
Cleaning up                                    ... done

-------------------------
THE POLARIZABILITY TENSOR
-------------------------

The raw cartesian tensor (atomic units):
   34.51755      1.32657     -0.00000  
    1.32657     33.79938      0.00000  
   -0.00000      0.00000     25.90947  
diagonalized tensor: 
   25.90947     32.78415     35.53278  

    0.00000     -0.60775     -0.79413  
   -0.00000      0.79413     -0.60775  
    1.00000      0.00000      0.00000  

Isotropic polarizability :  31.40880


Timings for individual modules:

Sum of individual times         ...     6659.523 sec (= 110.992 min)
GTO integral calculation        ...        7.748 sec (=   0.129 min)   0.1 %
SCF iterations                  ...     4054.166 sec (=  67.569 min)  60.9 %
Solution of CP-SCF eqns.        ...     2597.609 sec (=  43.293 min)  39.0 %
                             ****ORCA TERMINATED NORMALLY****
TOTAL RUN TIME: 0 days 1 hours 50 minutes 59 seconds 998 msec
