
                                 *****************
                                 * O   R   C   A *
                                 *****************

           --- An Ab Initio, DFT and Semiempirical electronic structure package ---

                  #######################################################
                  #                        -***-                        #
                  #          Department of theory and spectroscopy      #
                  #               Directorship: Frank Neese             #
                  #        Max Planck Institute fuer Kohlenforschung    #
                  #                Kaiser Wilhelm Platz 1               #
                  #                 D-45470 Muelheim/Ruhr               #
                  #                      Germany                        #
                  #                                                     #
                  #                  All rights reserved                #
                  #                        -***-                        #
                  #######################################################


                         Program Version 4.1.2  - RELEASE  -


 With contributions from (in alphabetic order):
   Daniel Aravena         : Magnetic Properties
   Michael Atanasov       : Ab Initio Ligand Field Theory
   Alexander A. Auer      : GIAO ZORA
   Ute Becker             : Parallelization
   Giovanni Bistoni       : ED, Open-shell LED
   Martin Brehm           : Molecular dynamics
   Dmytro Bykov           : SCF Hessian
   Vijay G. Chilkuri      : MRCI spin determinant printing
   Dipayan Datta          : RHF DLPNO-CCSD density
   Achintya Kumar Dutta   : EOM-CC, STEOM-CC
   Dmitry Ganyushin       : Spin-Orbit,Spin-Spin,Magnetic field MRCI
   Miquel Garcia          : C-PCM Hessian
   Yang Guo               : DLPNO-NEVPT2, CIM, IAO-localization
   Andreas Hansen         : Spin unrestricted coupled pair/coupled cluster methods
   Benjamin Helmich-Paris : CASSCF linear response (MC-RPA)
   Lee Huntington         : MR-EOM, pCC
   Robert Izsak           : Overlap fitted RIJCOSX, COSX-SCS-MP3, EOM
   Christian Kollmar      : KDIIS, OOCD, Brueckner-CCSD(T), CCSD density
   Simone Kossmann        : Meta GGA functionals, TD-DFT gradient, OOMP2, MP2 Hessian
   Martin Krupicka        : AUTO-CI
   Lucas Lang             : DCDCAS
   Dagmar Lenk            : GEPOL surface, SMD
   Dimitrios Liakos       : Extrapolation schemes; parallel MDCI
   Dimitrios Manganas     : ROCIS; embedding schemes
   Dimitrios Pantazis     : SARC Basis sets
   Taras Petrenko         : DFT Hessian,TD-DFT gradient, ASA, ECA, R-Raman, ABS, FL, XAS/XES, NRVS
   Peter Pinski           : DLPNO-MP2, DLPNO-MP2 Gradient
   Christoph Reimann      : Effective Core Potentials
   Marius Retegan         : Local ZFS, SOC
   Christoph Riplinger    : Optimizer, TS searches, QM/MM, DLPNO-CCSD(T), (RO)-DLPNO pert. Triples
   Tobias Risthaus        : Range-separated hybrids, TD-DFT gradient, RPA, STAB
   Michael Roemelt        : Restricted open shell CIS
   Masaaki Saitow         : Open-shell DLPNO
   Barbara Sandhoefer     : DKH picture change effects
   Avijit Sen             : IP-ROCIS
   Kantharuban Sivalingam : CASSCF convergence, NEVPT2, FIC-MRCI
   Bernardo de Souza      : ESD, SOC TD-DFT
   Georgi Stoychev        : AutoAux, RI-MP2 NMR
   Willem Van den Heuvel  : Paramagnetic NMR
   Boris Wezisla          : Elementary symmetry handling
   Frank Wennmohs         : Technical directorship


 We gratefully acknowledge several colleagues who have allowed us to
 interface, adapt or use parts of their codes:
   Stefan Grimme, W. Hujo, H. Kruse,             : VdW corrections, initial TS optimization,
                  C. Bannwarth                     DFT functionals, gCP, sTDA/sTD-DF
   Ed Valeev                                     : LibInt (2-el integral package), F12 methods
   Garnet Chan, S. Sharma, J. Yang, R. Olivares  : DMRG
   Ulf Ekstrom                                   : XCFun DFT Library
   Mihaly Kallay                                 : mrcc  (arbitrary order and MRCC methods)
   Andreas Klamt, Michael Diedenhofen            : otool_cosmo (COSMO solvation model)
   Jiri Pittner, Ondrej Demel                    : Mk-CCSD
   Frank Weinhold                                : gennbo (NPA and NBO analysis)
   Christopher J. Cramer and Donald G. Truhlar   : smd solvation model
   Lars Goerigk                                  : TD-DFT with DH, B97 family of functionals
   V. Asgeirsson, H. Jonsson                     : NEB implementation
   FAccTs GmbH                                   : IRC, NEB, NEB-TS, Multilevel


 Your calculation uses the libint2 library for the computation of 2-el integrals
 For citations please refer to: http://libint.valeyev.net

 This ORCA versions uses:
   CBLAS   interface :  Fast vector & matrix operations
   LAPACKE interface :  Fast linear algebra routines
   SCALAPACK package :  Parallel linear algebra routines


----- Orbital basis set information -----
Your calculation utilizes the basis: aug-pc-4
   H, C-F              : F. Jensen, J. Chem. Phys. 115, 9113 (2001).
                         F. Jensen, J. Chem. Phys. 116, 7372 (2002).
                         F. Jensen, J. Chem. Phys. 117, 9234 (2002).
   Si-Cl               : F. Jensen, T. Helgaker, J. Chem. Phys. 121, 3463 (2004).
   He-B, Ne-Mg, Al, Ar : F. Jensen, J. Phys. Chem. A 111, 11198 (2007).
   K, Ca, Ga-Kr        : F. Jensen, J. Chem. Phys. 136, 094110 (2012).
   Sc-Zn               : F. Jensen, J. Chem. Phys. 138, 014107 (2013).

================================================================================
                                        WARNINGS
                       Please study these warnings very carefully!
================================================================================


INFO   : the flag for use of LIBINT has been found!

================================================================================
                                       INPUT FILE
================================================================================
NAME = nali_pbe.inp
|  1> !uks pbe nori aug-pc-4 grid7 nofinalgrid verytightscf
|  2> 
|  3> %maxcore 1500
|  4> 
|  5> %pal nprocs 1 end
|  6> 
|  7> %scf
|  8> 	maxiter 200
|  9> end
| 10> %elprop
| 11> 	dipole true
| 12> 	 polar 1
| 13> 	 maxiter 200
| 14> end
| 15> 
| 16> * xyz 0 1
| 17> Li 0.0000 0.0000 0.0000
| 18> Na 0.0000 0.0000 2.8890
| 19> *
| 20> 
| 21>                          ****END OF INPUT****
================================================================================

                       ****************************
                       * Single Point Calculation *
                       ****************************

---------------------------------
CARTESIAN COORDINATES (ANGSTROEM)
---------------------------------
  Li     0.000000    0.000000    0.000000
  Na     0.000000    0.000000    2.889000

----------------------------
CARTESIAN COORDINATES (A.U.)
----------------------------
  NO LB      ZA    FRAG     MASS         X           Y           Z
   0 Li    3.0000    0     6.941    0.000000    0.000000    0.000000
   1 Na   11.0000    0    22.990    0.000000    0.000000    5.459419

--------------------------------
INTERNAL COORDINATES (ANGSTROEM)
--------------------------------
 Li     0   0   0     0.000000000000     0.00000000     0.00000000
 Na     1   0   0     2.889000000000     0.00000000     0.00000000

---------------------------
INTERNAL COORDINATES (A.U.)
---------------------------
 Li     0   0   0     0.000000000000     0.00000000     0.00000000
 Na     1   0   0     5.459418800898     0.00000000     0.00000000

---------------------
BASIS SET INFORMATION
---------------------
There are 2 groups of distinct atoms

 Group   1 Type Li  : 31s9p4d3f2g contracted to 9s5p4d3f2g pattern {12121111111/51111/1111/111/11}
 Group   2 Type Na  : 44s16p4d3f2g contracted to 8s6p4d3f2g pattern {15111311111/1111111/1111/111/11}

Atom   0Li   basis set group =>   1
Atom   1Na   basis set group =>   2
------------------------------------------------------------------------------
                           ORCA GTO INTEGRAL CALCULATION
------------------------------------------------------------------------------

                         BASIS SET STATISTICS AND STARTUP INFO

 # of primitive gaussian shells          ...  118
 # of primitive gaussian functions       ...  268
 # of contracted shells                  ...   46
 # of contracted basis functions         ...  168
 Highest angular momentum                ...    4
 Maximum contraction depth               ...   15
 Integral package used                   ... LIBINT
 Integral threshhold            Thresh   ...  1.000e-12
 Primitive cut-off              TCut     ...  1.000e-14


------------------------------ INTEGRAL EVALUATION ----------------------------


 * One electron integrals 
 Pre-screening matrix                    ... done
 Shell pair data                         ... done (   0.000 sec)

-------------------------------------------------------------------------------
                                 ORCA SCF
-------------------------------------------------------------------------------

------------
SCF SETTINGS
------------
Hamiltonian:
 Density Functional     Method          .... DFT(GTOs)
 Exchange Functional    Exchange        .... PBE
   PBE kappa parameter   XKappa         ....  0.804000
   PBE mue parameter    XMuePBE         ....  0.219520
 Correlation Functional Correlation     .... PBE
   PBE beta parameter  CBetaPBE         ....  0.066725
 LDA part of GGA corr.  LDAOpt          .... PW91-LDA
 Gradients option       PostSCFGGA      .... off
   Density functional embedding theory  .... OFF
   NL short-range parameter             ....  6.400000


General Settings:
 Integral files         IntName         .... nali_pbe
 Hartree-Fock type      HFTyp           .... UHF
 Total Charge           Charge          ....    0
 Multiplicity           Mult            ....    1
 Number of Electrons    NEL             ....   14
 Basis Dimension        Dim             ....  168
 Nuclear Repulsion      ENuc            ....      6.0445994718 Eh

Convergence Acceleration:
 DIIS                   CNVDIIS         .... on
   Start iteration      DIISMaxIt       ....    12
   Startup error        DIISStart       ....  0.200000
   # of expansion vecs  DIISMaxEq       ....     5
   Bias factor          DIISBfac        ....   1.050
   Max. coefficient     DIISMaxC        ....  10.000
 Newton-Raphson         CNVNR           .... off
 SOSCF                  CNVSOSCF        .... off
 Level Shifting         CNVShift        .... on
   Level shift para.    LevelShift      ....    0.2500
   Turn off err/grad.   ShiftErr        ....    0.0010
 Zerner damping         CNVZerner       .... off
 Static damping         CNVDamp         .... on
   Fraction old density DampFac         ....    0.7000
   Max. Damping (<1)    DampMax         ....    0.9800
   Min. Damping (>=0)   DampMin         ....    0.0000
   Turn off err/grad.   DampErr         ....    0.1000
 Fernandez-Rico         CNVRico         .... off

SCF Procedure:
 Maximum # iterations   MaxIter         ....   200
 SCF integral mode      SCFMode         .... Direct
   Integral package                     .... LIBINT
 Reset frequency        DirectResetFreq ....    20
 Integral Threshold     Thresh          ....  1.000e-12 Eh
 Primitive CutOff       TCut            ....  1.000e-14 Eh

Convergence Tolerance:
 Convergence Check Mode ConvCheckMode   .... Total+1el-Energy
 Convergence forced     ConvForced      .... 0
 Energy Change          TolE            ....  1.000e-09 Eh
 1-El. energy change                    ....  1.000e-06 Eh
 DIIS Error             TolErr          ....  1.000e-08


Diagonalization of the overlap matrix:
Smallest eigenvalue                        ... 1.899e-05
Time for diagonalization                   ...    0.004 sec
Threshold for overlap eigenvalues          ... 1.000e-08
Number of eigenvalues below threshold      ... 0
Time for construction of square roots      ...    0.006 sec
Total time needed                          ...    0.011 sec

-------------------
DFT GRID GENERATION
-------------------

General Integration Accuracy     IntAcc      ...  5.670
Radial Grid Type                 RadialGrid  ... Gauss-Chebyshev
Angular Grid (max. acc.)         AngularGrid ... Lebedev-770
Angular grid pruning method      GridPruning ... 3 (G Style)
Weight generation scheme         WeightScheme... Becke
Basis function cutoff            BFCut       ...    1.0000e-12
Integration weight cutoff        WCut        ...    1.0000e-14
Grids for H and He will be reduced by one unit

# of grid points (after initial pruning)     ...  50354 (   0.0 sec)
# of grid points (after weights+screening)   ...  50199 (   0.0 sec)
nearest neighbour list constructed           ...    0.0 sec
Grid point re-assignment to atoms done       ...    0.0 sec
Grid point division into batches done        ...    1.0 sec
Reduced shell lists constructed in    1.3 sec

Total number of grid points                  ...    50199
Total number of batches                      ...      786
Average number of points per batch           ...       63
Average number of grid points per atom       ...    25100
Average number of shells per batch           ...    37.38 (81.26%)
Average number of basis functions per batch  ...   135.79 (80.83%)
Average number of large shells per batch     ...    34.14 (91.33%)
Average number of large basis fcns per batch ...   124.08 (91.38%)
Maximum spatial batch extension              ...  28.33, 28.33, 26.05 au
Average spatial batch extension              ...   4.53,  4.56,  4.14 au

Time for grid setup =    1.356 sec

------------------------------
INITIAL GUESS: MODEL POTENTIAL
------------------------------
Loading Hartree-Fock densities                     ... done
Calculating cut-offs                               ... done
Setting up the integral package                    ... done
Initializing the effective Hamiltonian             ... done
Starting the Coulomb interaction                   ... done (   0.0 sec)
Reading the grid                                   ... done
Mapping shells                                     ... done
Starting the XC term evaluation                    ... done (   0.8 sec)
  promolecular density results
     # of electrons  =     14.000000394
     EX              =    -15.695544466
     EC              =     -0.439918714
     EX+EC           =    -16.135463180
Transforming the Hamiltonian                       ... done (   0.0 sec)
Diagonalizing the Hamiltonian                      ... done (   0.0 sec)
Back transforming the eigenvectors                 ... done (   0.0 sec)
Now organizing SCF variables                       ... done
                      ------------------
                      INITIAL GUESS DONE (   2.3 sec)
                      ------------------
--------------
SCF ITERATIONS
--------------
ITER       Energy         Delta-E        Max-DP      RMS-DP      [F,P]     Damp
               ***  Starting incremental Fock matrix formation  ***
  0   -169.6584523354   0.000000000000 0.00700697  0.00015803  0.0374993 0.7000
  1   -169.6601131468  -0.001660811380 0.00596525  0.00015134  0.0240962 0.7000
                               ***Turning on DIIS***
  2   -169.6614887909  -0.001375644183 0.01773413  0.00039887  0.0172021 0.0000
  3   -169.6637231416  -0.002234350625 0.00591850  0.00011543  0.0131106 0.0000
  4   -169.6638859017  -0.000162760128 0.00336095  0.00005116  0.0021889 0.0000
  5   -169.6639131571  -0.000027255383 0.00176249  0.00002910  0.0011516 0.0000
  6   -169.6639221017  -0.000008944606 0.00215347  0.00004584  0.0007663 0.0000
  7   -169.6639265960  -0.000004494307 0.00056558  0.00001083  0.0004987 0.0000
  8   -169.6639276232  -0.000001027175 0.00022985  0.00000499  0.0001467 0.0000
  9   -169.6639277343  -0.000000111176 0.00010473  0.00000134  0.0000556 0.0000
 10   -169.6639277408  -0.000000006417 0.00002217  0.00000030  0.0000128 0.0000
 11   -169.6639277410  -0.000000000230 0.00000220  0.00000005  0.0000010 0.0000
                 **** Energy Check signals convergence ****

               *****************************************************
               *                     SUCCESS                       *
               *           SCF CONVERGED AFTER  12 CYCLES          *
               *****************************************************


----------------
TOTAL SCF ENERGY
----------------

Total Energy       :         -169.66392774 Eh           -4616.79019 eV

Components:
Nuclear Repulsion  :            6.04459947 Eh             164.48191 eV
Electronic Energy  :         -175.70852721 Eh           -4781.27210 eV
One Electron Energy:         -249.88414617 Eh           -6799.69331 eV
Two Electron Energy:           74.17561896 Eh            2018.42121 eV

Virial components:
Potential Energy   :         -339.10760674 Eh           -9227.58710 eV
Kinetic Energy     :          169.44367900 Eh            4610.79691 eV
Virial Ratio       :            2.00129983


DFT components:
N(Alpha)           :        7.000000169154 electrons
N(Beta)            :        7.000000169154 electrons
N(Total)           :       14.000000338308 electrons
E(X)               :      -15.680769248854 Eh       
E(C)               :       -0.439063074582 Eh       
E(XC)              :      -16.119832323436 Eh       
DFET-embed. en.    :        0.000000000000 Eh       

---------------
SCF CONVERGENCE
---------------

  Last Energy change         ...   -2.2737e-13  Tolerance :   1.0000e-09
  Last MAX-Density change    ...    4.3509e-06  Tolerance :   1.0000e-08
  Last RMS-Density change    ...    9.1076e-08  Tolerance :   1.0000e-09
  Last DIIS Error            ...    2.1171e-07  Tolerance :   1.0000e-08

             **** THE GBW FILE WAS UPDATED (nali_pbe.gbw) ****
             **** DENSITY FILE WAS UPDATED (nali_pbe.scfp.tmp) ****
             **** ENERGY FILE WAS UPDATED (nali_pbe.en.tmp) ****
----------------------
UHF SPIN CONTAMINATION
----------------------

Warning: in a DFT calculation there is little theoretical justification to 
         calculate <S**2> as in Hartree-Fock theory. We will do it anyways
         but you should keep in mind that the values have only limited relevance

Expectation value of <S**2>     :     0.000000
Ideal value S*(S+1) for S=0.0   :     0.000000
Deviation                       :     0.000000

----------------
ORBITAL ENERGIES
----------------
                 SPIN UP ORBITALS
  NO   OCC          E(Eh)            E(eV) 
   0   1.0000     -37.888085     -1030.9872 
   1   1.0000      -2.054304       -55.9005 
   2   1.0000      -1.875323       -51.0301 
   3   1.0000      -1.030271       -28.0351 
   4   1.0000      -1.030271       -28.0351 
   5   1.0000      -1.030194       -28.0330 
   6   1.0000      -0.116880        -3.1805 
   7   0.0000      -0.066415        -1.8072 
   8   0.0000      -0.042119        -1.1461 
   9   0.0000      -0.042119        -1.1461 
  10   0.0000      -0.025204        -0.6858 
  11   0.0000      -0.000066        -0.0018 
  12   0.0000      -0.000066        -0.0018 
  13   0.0000       0.001832         0.0499 
  14   0.0000       0.005104         0.1389 
  15   0.0000       0.011536         0.3139 
  16   0.0000       0.011536         0.3139 
  17   0.0000       0.014373         0.3911 
  18   0.0000       0.018488         0.5031 
  19   0.0000       0.024186         0.6581 
  20   0.0000       0.024186         0.6581 
  21   0.0000       0.024669         0.6713 
  22   0.0000       0.024669         0.6713 
  23   0.0000       0.027310         0.7432 
  24   0.0000       0.041054         1.1171 
  25   0.0000       0.043480         1.1832 
  26   0.0000       0.043480         1.1832 
  27   0.0000       0.047536         1.2935 
  28   0.0000       0.051940         1.4134 
  29   0.0000       0.051940         1.4134 
  30   0.0000       0.053161         1.4466 
  31   0.0000       0.053161         1.4466 
  32   0.0000       0.054176         1.4742 
  33   0.0000       0.069601         1.8939 
  34   0.0000       0.069601         1.8939 
  35   0.0000       0.074315         2.0222 
  36   0.0000       0.078508         2.1363 
  37   0.0000       0.078508         2.1363 
  38   0.0000       0.087342         2.3767 
  39   0.0000       0.091024         2.4769 
  40   0.0000       0.091024         2.4769 
  41   0.0000       0.095176         2.5899 
  42   0.0000       0.095176         2.5899 
  43   0.0000       0.100740         2.7413 
  44   0.0000       0.100740         2.7413 
  45   0.0000       0.108674         2.9572 
  46   0.0000       0.111506         3.0342 
  47   0.0000       0.111506         3.0342 
  48   0.0000       0.114851         3.1253 
  49   0.0000       0.114851         3.1253 
  50   0.0000       0.119812         3.2603 
  51   0.0000       0.127789         3.4773 
  52   0.0000       0.127789         3.4773 
  53   0.0000       0.136931         3.7261 
  54   0.0000       0.140818         3.8319 
  55   0.0000       0.143564         3.9066 
  56   0.0000       0.143564         3.9066 
  57   0.0000       0.144069         3.9203 
  58   0.0000       0.144069         3.9203 
  59   0.0000       0.152177         4.1409 
  60   0.0000       0.152177         4.1409 
  61   0.0000       0.161303         4.3893 
  62   0.0000       0.170693         4.6448 
  63   0.0000       0.170693         4.6448 
  64   0.0000       0.174743         4.7550 
  65   0.0000       0.174743         4.7550 
  66   0.0000       0.177834         4.8391 
  67   0.0000       0.177834         4.8391 
  68   0.0000       0.188146         5.1197 
  69   0.0000       0.188146         5.1197 
  70   0.0000       0.190756         5.1907 
  71   0.0000       0.209173         5.6919 
  72   0.0000       0.209173         5.6919 
  73   0.0000       0.211971         5.7680 
  74   0.0000       0.213841         5.8189 
  75   0.0000       0.213841         5.8189 
  76   0.0000       0.265963         7.2372 
  77   0.0000       0.265963         7.2372 
  78   0.0000       0.267386         7.2759 
  79   0.0000       0.293297         7.9810 
  80   0.0000       0.293297         7.9810 
  81   0.0000       0.326654         8.8887 
  82   0.0000       0.350729         9.5438 
  83   0.0000       0.356303         9.6955 
  84   0.0000       0.356303         9.6955 
  85   0.0000       0.386370        10.5137 
  86   0.0000       0.390057        10.6140 
  87   0.0000       0.390057        10.6140 
  88   0.0000       0.408058        11.1038 
  89   0.0000       0.428156        11.6507 
  90   0.0000       0.428156        11.6507 
  91   0.0000       0.575796        15.6682 
  92   0.0000       0.640294        17.4233 
  93   0.0000       0.640295        17.4233 
  94   0.0000       0.648966        17.6593 
  95   0.0000       0.648966        17.6593 
  96   0.0000       0.650071        17.6893 
  97   0.0000       0.671117        18.2620 
  98   0.0000       0.671117        18.2620 
  99   0.0000       0.724523        19.7153 
 100   0.0000       0.724523        19.7153 
 101   0.0000       0.786367        21.3981 
 102   0.0000       0.830564        22.6008 
 103   0.0000       0.830564        22.6008 
 104   0.0000       0.891851        24.2685 
 105   0.0000       0.891851        24.2685 
 106   0.0000       0.923161        25.1205 
 107   0.0000       0.985229        26.8094 
 108   0.0000       0.994746        27.0684 
 109   0.0000       0.994746        27.0684 
 110   0.0000       1.001368        27.2486 
 111   0.0000       1.001369        27.2486 
 112   0.0000       1.077488        29.3199 
 113   0.0000       1.077488        29.3199 
 114   0.0000       1.140447        31.0331 
 115   0.0000       1.246012        33.9057 
 116   0.0000       1.246012        33.9057 
 117   0.0000       1.382864        37.6297 
 118   0.0000       1.382865        37.6297 
 119   0.0000       1.389857        37.8199 
 120   0.0000       1.389858        37.8200 
 121   0.0000       1.390154        37.8280 
 122   0.0000       1.390154        37.8280 
 123   0.0000       1.405335        38.2411 
 124   0.0000       1.405335        38.2411 
 125   0.0000       1.444211        39.2990 
 126   0.0000       1.444211        39.2990 
 127   0.0000       1.455653        39.6103 
 128   0.0000       1.529285        41.6140 
 129   0.0000       1.594091        43.3774 
 130   0.0000       1.594091        43.3774 
 131   0.0000       1.627328        44.2819 
 132   0.0000       1.966950        53.5234 
 133   0.0000       2.291230        62.3475 
 134   0.0000       2.291230        62.3475 
 135   0.0000       2.305399        62.7331 
 136   0.0000       2.305400        62.7331 
 137   0.0000       2.372858        64.5687 
 138   0.0000       2.372858        64.5687 
 139   0.0000       2.500609        68.0450 
 140   0.0000       2.662970        72.4631 
 141   0.0000       2.662973        72.4632 
 142   0.0000       2.663175        72.4687 
 143   0.0000       2.663175        72.4687 
 144   0.0000       2.663918        72.4889 
 145   0.0000       2.711898        73.7945 
 146   0.0000       2.711898        73.7945 
 147   0.0000       2.875075        78.2348 
 148   0.0000       2.875075        78.2348 
 149   0.0000       3.046732        82.9058 
 150   0.0000       3.936730       107.1239 
 151   0.0000       3.936730       107.1239 
 152   0.0000       3.954258       107.6008 
 153   0.0000       3.954258       107.6008 
 154   0.0000       4.060506       110.4920 
 155   0.0000       4.060506       110.4920 
 156   0.0000       4.135718       112.5386 
 157   0.0000       5.187776       141.1665 
 158   0.0000       5.187776       141.1666 
 159   0.0000       5.212878       141.8496 
 160   0.0000       5.212878       141.8496 
 161   0.0000       5.329289       145.0173 
 162   0.0000       5.583114       151.9243 
 163   0.0000       5.583115       151.9243 
 164   0.0000       5.614929       152.7900 
 165   0.0000       5.614929       152.7900 
 166   0.0000       5.702276       155.1668 
 167   0.0000      10.378513       282.4137 

                 SPIN DOWN ORBITALS
  NO   OCC          E(Eh)            E(eV) 
   0   1.0000     -37.888085     -1030.9872 
   1   1.0000      -2.054304       -55.9005 
   2   1.0000      -1.875323       -51.0301 
   3   1.0000      -1.030271       -28.0351 
   4   1.0000      -1.030271       -28.0351 
   5   1.0000      -1.030194       -28.0330 
   6   1.0000      -0.116880        -3.1805 
   7   0.0000      -0.066415        -1.8072 
   8   0.0000      -0.042119        -1.1461 
   9   0.0000      -0.042119        -1.1461 
  10   0.0000      -0.025204        -0.6858 
  11   0.0000      -0.000066        -0.0018 
  12   0.0000      -0.000066        -0.0018 
  13   0.0000       0.001832         0.0499 
  14   0.0000       0.005104         0.1389 
  15   0.0000       0.011536         0.3139 
  16   0.0000       0.011536         0.3139 
  17   0.0000       0.014373         0.3911 
  18   0.0000       0.018488         0.5031 
  19   0.0000       0.024186         0.6581 
  20   0.0000       0.024186         0.6581 
  21   0.0000       0.024669         0.6713 
  22   0.0000       0.024669         0.6713 
  23   0.0000       0.027310         0.7432 
  24   0.0000       0.041054         1.1171 
  25   0.0000       0.043480         1.1832 
  26   0.0000       0.043480         1.1832 
  27   0.0000       0.047536         1.2935 
  28   0.0000       0.051940         1.4134 
  29   0.0000       0.051940         1.4134 
  30   0.0000       0.053161         1.4466 
  31   0.0000       0.053161         1.4466 
  32   0.0000       0.054176         1.4742 
  33   0.0000       0.069601         1.8939 
  34   0.0000       0.069601         1.8939 
  35   0.0000       0.074315         2.0222 
  36   0.0000       0.078508         2.1363 
  37   0.0000       0.078508         2.1363 
  38   0.0000       0.087342         2.3767 
  39   0.0000       0.091024         2.4769 
  40   0.0000       0.091024         2.4769 
  41   0.0000       0.095176         2.5899 
  42   0.0000       0.095176         2.5899 
  43   0.0000       0.100740         2.7413 
  44   0.0000       0.100740         2.7413 
  45   0.0000       0.108674         2.9572 
  46   0.0000       0.111506         3.0342 
  47   0.0000       0.111506         3.0342 
  48   0.0000       0.114851         3.1253 
  49   0.0000       0.114851         3.1253 
  50   0.0000       0.119812         3.2603 
  51   0.0000       0.127789         3.4773 
  52   0.0000       0.127789         3.4773 
  53   0.0000       0.136931         3.7261 
  54   0.0000       0.140818         3.8319 
  55   0.0000       0.143564         3.9066 
  56   0.0000       0.143564         3.9066 
  57   0.0000       0.144069         3.9203 
  58   0.0000       0.144069         3.9203 
  59   0.0000       0.152177         4.1409 
  60   0.0000       0.152177         4.1409 
  61   0.0000       0.161303         4.3893 
  62   0.0000       0.170693         4.6448 
  63   0.0000       0.170693         4.6448 
  64   0.0000       0.174743         4.7550 
  65   0.0000       0.174743         4.7550 
  66   0.0000       0.177834         4.8391 
  67   0.0000       0.177834         4.8391 
  68   0.0000       0.188146         5.1197 
  69   0.0000       0.188146         5.1197 
  70   0.0000       0.190756         5.1907 
  71   0.0000       0.209173         5.6919 
  72   0.0000       0.209173         5.6919 
  73   0.0000       0.211971         5.7680 
  74   0.0000       0.213841         5.8189 
  75   0.0000       0.213841         5.8189 
  76   0.0000       0.265963         7.2372 
  77   0.0000       0.265963         7.2372 
  78   0.0000       0.267386         7.2759 
  79   0.0000       0.293297         7.9810 
  80   0.0000       0.293297         7.9810 
  81   0.0000       0.326654         8.8887 
  82   0.0000       0.350729         9.5438 
  83   0.0000       0.356303         9.6955 
  84   0.0000       0.356303         9.6955 
  85   0.0000       0.386370        10.5137 
  86   0.0000       0.390057        10.6140 
  87   0.0000       0.390057        10.6140 
  88   0.0000       0.408058        11.1038 
  89   0.0000       0.428156        11.6507 
  90   0.0000       0.428156        11.6507 
  91   0.0000       0.575796        15.6682 
  92   0.0000       0.640294        17.4233 
  93   0.0000       0.640295        17.4233 
  94   0.0000       0.648966        17.6593 
  95   0.0000       0.648966        17.6593 
  96   0.0000       0.650071        17.6893 
  97   0.0000       0.671117        18.2620 
  98   0.0000       0.671117        18.2620 
  99   0.0000       0.724523        19.7153 
 100   0.0000       0.724523        19.7153 
 101   0.0000       0.786367        21.3981 
 102   0.0000       0.830564        22.6008 
 103   0.0000       0.830564        22.6008 
 104   0.0000       0.891851        24.2685 
 105   0.0000       0.891851        24.2685 
 106   0.0000       0.923161        25.1205 
 107   0.0000       0.985229        26.8094 
 108   0.0000       0.994746        27.0684 
 109   0.0000       0.994746        27.0684 
 110   0.0000       1.001368        27.2486 
 111   0.0000       1.001369        27.2486 
 112   0.0000       1.077488        29.3199 
 113   0.0000       1.077488        29.3199 
 114   0.0000       1.140447        31.0331 
 115   0.0000       1.246012        33.9057 
 116   0.0000       1.246012        33.9057 
 117   0.0000       1.382864        37.6297 
 118   0.0000       1.382865        37.6297 
 119   0.0000       1.389857        37.8199 
 120   0.0000       1.389858        37.8200 
 121   0.0000       1.390154        37.8280 
 122   0.0000       1.390154        37.8280 
 123   0.0000       1.405335        38.2411 
 124   0.0000       1.405335        38.2411 
 125   0.0000       1.444211        39.2990 
 126   0.0000       1.444211        39.2990 
 127   0.0000       1.455653        39.6103 
 128   0.0000       1.529285        41.6140 
 129   0.0000       1.594091        43.3774 
 130   0.0000       1.594091        43.3774 
 131   0.0000       1.627328        44.2819 
 132   0.0000       1.966950        53.5234 
 133   0.0000       2.291230        62.3475 
 134   0.0000       2.291230        62.3475 
 135   0.0000       2.305399        62.7331 
 136   0.0000       2.305400        62.7331 
 137   0.0000       2.372858        64.5687 
 138   0.0000       2.372858        64.5687 
 139   0.0000       2.500609        68.0450 
 140   0.0000       2.662970        72.4631 
 141   0.0000       2.662973        72.4632 
 142   0.0000       2.663175        72.4687 
 143   0.0000       2.663175        72.4687 
 144   0.0000       2.663918        72.4889 
 145   0.0000       2.711898        73.7945 
 146   0.0000       2.711898        73.7945 
 147   0.0000       2.875075        78.2348 
 148   0.0000       2.875075        78.2348 
 149   0.0000       3.046732        82.9058 
 150   0.0000       3.936730       107.1239 
 151   0.0000       3.936730       107.1239 
 152   0.0000       3.954258       107.6008 
 153   0.0000       3.954258       107.6008 
 154   0.0000       4.060506       110.4920 
 155   0.0000       4.060506       110.4920 
 156   0.0000       4.135718       112.5386 
 157   0.0000       5.187776       141.1665 
 158   0.0000       5.187776       141.1666 
 159   0.0000       5.212878       141.8496 
 160   0.0000       5.212878       141.8496 
 161   0.0000       5.329289       145.0173 
 162   0.0000       5.583114       151.9243 
 163   0.0000       5.583115       151.9243 
 164   0.0000       5.614929       152.7900 
 165   0.0000       5.614929       152.7900 
 166   0.0000       5.702276       155.1668 
 167   0.0000      10.378513       282.4137 

                    ********************************
                    * MULLIKEN POPULATION ANALYSIS *
                    ********************************

--------------------------------------------
MULLIKEN ATOMIC CHARGES AND SPIN POPULATIONS
--------------------------------------------
   0 Li:   -0.268951    0.000000
   1 Na:    0.268951   -0.000000
Sum of atomic charges         :   -0.0000000
Sum of atomic spin populations:   -0.0000000

-----------------------------------------------------
MULLIKEN REDUCED ORBITAL CHARGES AND SPIN POPULATIONS
-----------------------------------------------------
CHARGE
  0 Lis       :     3.223194  s :     3.223194
      pz      :     0.056485  p :     0.056366
      px      :    -0.000059
      py      :    -0.000059
      dz2     :    -0.008796  d :    -0.008776
      dxz     :     0.000010
      dyz     :     0.000010
      dx2y2   :    -0.000000
      dxy     :    -0.000000
      f0      :    -0.001818  f :    -0.001749
      f+1     :     0.000034
      f-1     :     0.000034
      f+2     :     0.000000
      f-2     :    -0.000000
      f+3     :    -0.000000
      f-3     :    -0.000000
      g0      :    -0.000116  g :    -0.000084
      g+1     :     0.000016
      g-1     :     0.000016
      g+2     :     0.000000
      g-2     :     0.000000
      g+3     :    -0.000000
      g-3     :    -0.000000
      g+4     :     0.000000
      g-4     :     0.000000
  1 Nas       :     4.772082  s :     4.772082
      pz      :     1.965786  p :     5.965753
      px      :     1.999984
      py      :     1.999984
      dz2     :    -0.006495  d :    -0.006465
      dxz     :     0.000015
      dyz     :     0.000015
      dx2y2   :     0.000000
      dxy     :     0.000000
      f0      :    -0.000311  f :    -0.000311
      f+1     :     0.000000
      f-1     :     0.000000
      f+2     :    -0.000000
      f-2     :    -0.000000
      f+3     :     0.000000
      f-3     :     0.000000
      g0      :    -0.000010  g :    -0.000010
      g+1     :     0.000000
      g-1     :     0.000000
      g+2     :     0.000000
      g-2     :    -0.000000
      g+3     :     0.000000
      g-3     :     0.000000
      g+4     :     0.000000
      g-4     :     0.000000

SPIN
  0 Lis       :     0.000000  s :     0.000000
      pz      :    -0.000000  p :    -0.000000
      px      :    -0.000000
      py      :     0.000000
      dz2     :    -0.000000  d :    -0.000000
      dxz     :     0.000000
      dyz     :     0.000000
      dx2y2   :     0.000000
      dxy     :    -0.000000
      f0      :    -0.000000  f :    -0.000000
      f+1     :     0.000000
      f-1     :     0.000000
      f+2     :    -0.000000
      f-2     :    -0.000000
      f+3     :    -0.000000
      f-3     :    -0.000000
      g0      :    -0.000000  g :    -0.000000
      g+1     :    -0.000000
      g-1     :     0.000000
      g+2     :    -0.000000
      g-2     :     0.000000
      g+3     :    -0.000000
      g-3     :    -0.000000
      g+4     :     0.000000
      g-4     :    -0.000000
  1 Nas       :    -0.000000  s :    -0.000000
      pz      :    -0.000000  p :    -0.000000
      px      :     0.000000
      py      :     0.000000
      dz2     :    -0.000000  d :    -0.000000
      dxz     :    -0.000000
      dyz     :    -0.000000
      dx2y2   :    -0.000000
      dxy     :     0.000000
      f0      :    -0.000000  f :    -0.000000
      f+1     :     0.000000
      f-1     :     0.000000
      f+2     :    -0.000000
      f-2     :    -0.000000
      f+3     :    -0.000000
      f-3     :    -0.000000
      g0      :    -0.000000  g :    -0.000000
      g+1     :     0.000000
      g-1     :     0.000000
      g+2     :    -0.000000
      g-2     :     0.000000
      g+3     :     0.000000
      g-3     :     0.000000
      g+4     :    -0.000000
      g-4     :     0.000000


                     *******************************
                     * LOEWDIN POPULATION ANALYSIS *
                     *******************************

-------------------------------------------
LOEWDIN ATOMIC CHARGES AND SPIN POPULATIONS
-------------------------------------------
   0 Li:   -0.100174   -0.000000
   1 Na:    0.100174    0.000000

----------------------------------------------------
LOEWDIN REDUCED ORBITAL CHARGES AND SPIN POPULATIONS
----------------------------------------------------
CHARGE
  0 Lis       :     2.877196  s :     2.877196
      pz      :     0.145901  p :     0.146123
      px      :     0.000111
      py      :     0.000111
      dz2     :     0.041116  d :     0.042021
      dxz     :     0.000453
      dyz     :     0.000453
      dx2y2   :     0.000000
      dxy     :     0.000000
      f0      :     0.021241  f :     0.022553
      f+1     :     0.000656
      f-1     :     0.000656
      f+2     :     0.000000
      f-2     :     0.000000
      f+3     :     0.000000
      f-3     :     0.000000
      g0      :     0.010457  g :     0.012281
      g+1     :     0.000912
      g-1     :     0.000912
      g+2     :     0.000000
      g-2     :     0.000000
      g+3     :     0.000000
      g-3     :     0.000000
      g+4     :     0.000000
      g-4     :     0.000000
  1 Nas       :     4.764248  s :     4.764248
      pz      :     2.112147  p :     6.107837
      px      :     1.997845
      py      :     1.997845
      dz2     :     0.022863  d :     0.022902
      dxz     :     0.000019
      dyz     :     0.000019
      dx2y2   :     0.000000
      dxy     :     0.000000
      f0      :     0.003636  f :     0.003641
      f+1     :     0.000003
      f-1     :     0.000003
      f+2     :     0.000000
      f-2     :     0.000000
      f+3     :     0.000000
      f-3     :     0.000000
      g0      :     0.001197  g :     0.001199
      g+1     :     0.000001
      g-1     :     0.000001
      g+2     :     0.000000
      g-2     :     0.000000
      g+3     :     0.000000
      g-3     :     0.000000
      g+4     :     0.000000
      g-4     :     0.000000

SPIN
  0 Lis       :    -0.000000  s :    -0.000000
      pz      :    -0.000000  p :    -0.000000
      px      :    -0.000000
      py      :     0.000000
      dz2     :    -0.000000  d :    -0.000000
      dxz     :     0.000000
      dyz     :     0.000000
      dx2y2   :     0.000000
      dxy     :    -0.000000
      f0      :    -0.000000  f :    -0.000000
      f+1     :     0.000000
      f-1     :     0.000000
      f+2     :    -0.000000
      f-2     :    -0.000000
      f+3     :     0.000000
      f-3     :    -0.000000
      g0      :    -0.000000  g :    -0.000000
      g+1     :    -0.000000
      g-1     :     0.000000
      g+2     :    -0.000000
      g-2     :    -0.000000
      g+3     :    -0.000000
      g-3     :    -0.000000
      g+4     :     0.000000
      g-4     :    -0.000000
  1 Nas       :     0.000000  s :     0.000000
      pz      :    -0.000000  p :    -0.000000
      px      :     0.000000
      py      :     0.000000
      dz2     :    -0.000000  d :    -0.000000
      dxz     :     0.000000
      dyz     :     0.000000
      dx2y2   :     0.000000
      dxy     :     0.000000
      f0      :    -0.000000  f :    -0.000000
      f+1     :    -0.000000
      f-1     :    -0.000000
      f+2     :    -0.000000
      f-2     :    -0.000000
      f+3     :    -0.000000
      f-3     :    -0.000000
      g0      :    -0.000000  g :    -0.000000
      g+1     :    -0.000000
      g-1     :     0.000000
      g+2     :    -0.000000
      g-2     :    -0.000000
      g+3     :     0.000000
      g-3     :     0.000000
      g+4     :    -0.000000
      g-4     :     0.000000


                      *****************************
                      * MAYER POPULATION ANALYSIS *
                      *****************************

  NA   - Mulliken gross atomic population
  ZA   - Total nuclear charge
  QA   - Mulliken gross atomic charge
  VA   - Mayer's total valence
  BVA  - Mayer's bonded valence
  FA   - Mayer's free valence

  ATOM       NA         ZA         QA         VA         BVA        FA
  0 Li     3.2690     3.0000    -0.2690     0.9301     0.9301     0.0000
  1 Na    10.7310    11.0000     0.2690     0.9301     0.9301     0.0000

  Mayer bond orders larger than 0.1
B(  0-Li,  1-Na) :   0.9301 

-------
TIMINGS
-------

Total SCF time: 0 days 0 hours 3 min 3 sec 

Total time                  ....     183.779 sec
Sum of individual times     ....     183.403 sec  ( 99.8%)

Fock matrix formation       ....     180.703 sec  ( 98.3%)
  XC integration            ....      19.884 sec  ( 11.0% of F)
    Basis function eval.    ....       3.001 sec  ( 15.1% of XC)
    Density eval.           ....       4.001 sec  ( 20.1% of XC)
    XC-Functional eval.     ....       0.597 sec  (  3.0% of XC)
    XC-Potential eval.      ....      11.442 sec  ( 57.5% of XC)
Diagonalization             ....       0.141 sec  (  0.1%)
Density matrix formation    ....       0.004 sec  (  0.0%)
Population analysis         ....       0.045 sec  (  0.0%)
Initial guess               ....       0.953 sec  (  0.5%)
Orbital Transformation      ....       0.000 sec  (  0.0%)
Orbital Orthonormalization  ....       0.000 sec  (  0.0%)
DIIS solution               ....       0.202 sec  (  0.1%)
Grid generation             ....       1.356 sec  (  0.7%)

-------------------------   --------------------
FINAL SINGLE POINT ENERGY      -169.663927740992
-------------------------   --------------------


                            ***************************************
                            *     ORCA property calculations      *
                            ***************************************

                                    ---------------------
                                    Active property flags
                                    ---------------------
   (+) Dipole Moment
   (+) Polarizability


------------------------------------------------------------------------------
                       ORCA ELECTRIC PROPERTIES CALCULATION
------------------------------------------------------------------------------

Dipole Moment Calculation                       ... on
Quadrupole Moment Calculation                   ... off
Polarizability Calculation                      ... Analytic (CP-SCF)
GBWName                                         ... nali_pbe.gbw
Electron density file                           ... nali_pbe.scfp.tmp
The origin for moment calculation is the CENTER OF MASS  = ( 0.000000,  0.000000  4.193379)

-------------
DIPOLE MOMENT
-------------
                                X             Y             Z
Electronic contribution:      0.00000       0.00000      -1.26171
Nuclear contribution   :      0.00000       0.00000       1.34630
                        -----------------------------------------
Total Dipole Moment    :      0.00000       0.00000       0.08458
                        -----------------------------------------
Magnitude (a.u.)       :      0.08458
Magnitude (Debye)      :      0.21500



--------------------
Rotational spectrum 
--------------------
 
Rotational constants in cm-1:     0.000000     0.378845     0.378845 
Rotational constants in MHz :     0.000000 11357.499635 11357.499635 

 Dipole components along the rotational axes: 
x,y,z [a.u.] :     0.084584     0.000000     0.000000 
x,y,z [Debye]:     0.214996     0.000000     0.000000 

 
Transforming and storing MO dipole integrals   ... done

                ... starting polarizability calculation

Opening the Dipole integral file               ... (nali_pbe.dmo.tmp) done
Reading Dipole-MO integrals                    ... done
Solving CP-SCF equations                       ... 
------------------------------------------------------------------------------
                           ORCA CP-SCF CALCULATION
------------------------------------------------------------------------------

Input orbitals are from        ... nali_pbe.gbw
Input Perturbation             ... nali_pbe.cpv.tmp
Wavefunction output            ... nali_pbe.cpu.tmp
Perturbation mode              ... Real perturbation (singlet)
Solver                         ... POPLE
Max. number of iterations      ... 200
Convergence tolerance          ... 1.000e-06
Integral handling              ... Direct
Number of perturbations        ... 3
Number of operators            ... 2
Orbital ranges used for CP-SCF:
 Operator 0:  Orbitals   0...  6  to   7...167
 Operator 1:  Orbitals   0...  6  to   7...167
DFT calculation                         ... on
Exchange functional (SCF)               ... PBE
Exchange functional (CP-SCF)            ... PBE
   PBE kappa parameter  XKappa (SCF)    ...  0.804000
   PBE kappa parameter  XKappa (CP-SCF) ...  0.804000
   PBE mue parameter   XMuePBE (SCF)    ...  0.219520
   PBE mue parameter   XMuePBE (CP-SCF) ...  0.219520
Correlation functional (SCF)            ... PBE
Correlation functional (CP-SCF)         ... PBE
   PBE beta parameter CBetaPBE (SCF)    ...  0.066725
   PBE beta parameter CBetaPBE (CP-SCF) ...  0.066725
 LDA part of GGA corr.  LDAOpt (SCF)    ... PW91-LDA
 LDA part of GGA corr.  LDAOpt (CP-SCF) ... PW91-LDA
Variables per vector in CP-SCF ... 2254
Number of vectors sought       ... 3
Recalculating density on grid  ... done
Calculating the xc-kernel      ... done
     CP-SCF ITERATION   0: 
     CP-SCF ITERATION   1:      1.622010866759
     CP-SCF ITERATION   2:      0.026508012063
     CP-SCF ITERATION   3:      0.000599842887
     CP-SCF ITERATION   4:      0.000015719088
     CP-SCF ITERATION   5:      0.000001302817
     CP-SCF ITERATION   6:      0.000000472865
done
Reading CP-SCF coefficients                    ... done
Doing the polarizability tensor   ... done
Cleaning up                                    ... done

-------------------------
THE POLARIZABILITY TENSOR
-------------------------

The raw cartesian tensor (atomic units):
  181.81332      0.00000      0.00000  
    0.00000    181.81332     -0.00000  
    0.00000     -0.00000    301.65909  
diagonalized tensor: 
  181.81332    181.81332    301.65909  

    0.66352      0.74816      0.00000  
   -0.74816      0.66352     -0.00000  
   -0.00000      0.00000      1.00000  

Isotropic polarizability : 221.76191


Timings for individual modules:

Sum of individual times         ...      331.778 sec (=   5.530 min)
GTO integral calculation        ...        0.529 sec (=   0.009 min)   0.2 %
SCF iterations                  ...      183.828 sec (=   3.064 min)  55.4 %
Solution of CP-SCF eqns.        ...      147.421 sec (=   2.457 min)  44.4 %
                             ****ORCA TERMINATED NORMALLY****
TOTAL RUN TIME: 0 days 0 hours 5 minutes 32 seconds 86 msec
