
                                 *****************
                                 * O   R   C   A *
                                 *****************

           --- An Ab Initio, DFT and Semiempirical electronic structure package ---

                  #######################################################
                  #                        -***-                        #
                  #          Department of theory and spectroscopy      #
                  #               Directorship: Frank Neese             #
                  #        Max Planck Institute fuer Kohlenforschung    #
                  #                Kaiser Wilhelm Platz 1               #
                  #                 D-45470 Muelheim/Ruhr               #
                  #                      Germany                        #
                  #                                                     #
                  #                  All rights reserved                #
                  #                        -***-                        #
                  #######################################################


                         Program Version 4.1.2  - RELEASE  -


 With contributions from (in alphabetic order):
   Daniel Aravena         : Magnetic Properties
   Michael Atanasov       : Ab Initio Ligand Field Theory
   Alexander A. Auer      : GIAO ZORA
   Ute Becker             : Parallelization
   Giovanni Bistoni       : ED, Open-shell LED
   Martin Brehm           : Molecular dynamics
   Dmytro Bykov           : SCF Hessian
   Vijay G. Chilkuri      : MRCI spin determinant printing
   Dipayan Datta          : RHF DLPNO-CCSD density
   Achintya Kumar Dutta   : EOM-CC, STEOM-CC
   Dmitry Ganyushin       : Spin-Orbit,Spin-Spin,Magnetic field MRCI
   Miquel Garcia          : C-PCM Hessian
   Yang Guo               : DLPNO-NEVPT2, CIM, IAO-localization
   Andreas Hansen         : Spin unrestricted coupled pair/coupled cluster methods
   Benjamin Helmich-Paris : CASSCF linear response (MC-RPA)
   Lee Huntington         : MR-EOM, pCC
   Robert Izsak           : Overlap fitted RIJCOSX, COSX-SCS-MP3, EOM
   Christian Kollmar      : KDIIS, OOCD, Brueckner-CCSD(T), CCSD density
   Simone Kossmann        : Meta GGA functionals, TD-DFT gradient, OOMP2, MP2 Hessian
   Martin Krupicka        : AUTO-CI
   Lucas Lang             : DCDCAS
   Dagmar Lenk            : GEPOL surface, SMD
   Dimitrios Liakos       : Extrapolation schemes; parallel MDCI
   Dimitrios Manganas     : ROCIS; embedding schemes
   Dimitrios Pantazis     : SARC Basis sets
   Taras Petrenko         : DFT Hessian,TD-DFT gradient, ASA, ECA, R-Raman, ABS, FL, XAS/XES, NRVS
   Peter Pinski           : DLPNO-MP2, DLPNO-MP2 Gradient
   Christoph Reimann      : Effective Core Potentials
   Marius Retegan         : Local ZFS, SOC
   Christoph Riplinger    : Optimizer, TS searches, QM/MM, DLPNO-CCSD(T), (RO)-DLPNO pert. Triples
   Tobias Risthaus        : Range-separated hybrids, TD-DFT gradient, RPA, STAB
   Michael Roemelt        : Restricted open shell CIS
   Masaaki Saitow         : Open-shell DLPNO
   Barbara Sandhoefer     : DKH picture change effects
   Avijit Sen             : IP-ROCIS
   Kantharuban Sivalingam : CASSCF convergence, NEVPT2, FIC-MRCI
   Bernardo de Souza      : ESD, SOC TD-DFT
   Georgi Stoychev        : AutoAux, RI-MP2 NMR
   Willem Van den Heuvel  : Paramagnetic NMR
   Boris Wezisla          : Elementary symmetry handling
   Frank Wennmohs         : Technical directorship


 We gratefully acknowledge several colleagues who have allowed us to
 interface, adapt or use parts of their codes:
   Stefan Grimme, W. Hujo, H. Kruse,             : VdW corrections, initial TS optimization,
                  C. Bannwarth                     DFT functionals, gCP, sTDA/sTD-DF
   Ed Valeev                                     : LibInt (2-el integral package), F12 methods
   Garnet Chan, S. Sharma, J. Yang, R. Olivares  : DMRG
   Ulf Ekstrom                                   : XCFun DFT Library
   Mihaly Kallay                                 : mrcc  (arbitrary order and MRCC methods)
   Andreas Klamt, Michael Diedenhofen            : otool_cosmo (COSMO solvation model)
   Jiri Pittner, Ondrej Demel                    : Mk-CCSD
   Frank Weinhold                                : gennbo (NPA and NBO analysis)
   Christopher J. Cramer and Donald G. Truhlar   : smd solvation model
   Lars Goerigk                                  : TD-DFT with DH, B97 family of functionals
   V. Asgeirsson, H. Jonsson                     : NEB implementation
   FAccTs GmbH                                   : IRC, NEB, NEB-TS, Multilevel


 Your calculation uses the libint2 library for the computation of 2-el integrals
 For citations please refer to: http://libint.valeyev.net

 This ORCA versions uses:
   CBLAS   interface :  Fast vector & matrix operations
   LAPACKE interface :  Fast linear algebra routines
   SCALAPACK package :  Parallel linear algebra routines


----- Orbital basis set information -----
Your calculation utilizes the basis: aug-pc-4
   H, C-F              : F. Jensen, J. Chem. Phys. 115, 9113 (2001).
                         F. Jensen, J. Chem. Phys. 116, 7372 (2002).
                         F. Jensen, J. Chem. Phys. 117, 9234 (2002).
   Si-Cl               : F. Jensen, T. Helgaker, J. Chem. Phys. 121, 3463 (2004).
   He-B, Ne-Mg, Al, Ar : F. Jensen, J. Phys. Chem. A 111, 11198 (2007).
   K, Ca, Ga-Kr        : F. Jensen, J. Chem. Phys. 136, 094110 (2012).
   Sc-Zn               : F. Jensen, J. Chem. Phys. 138, 014107 (2013).

================================================================================
                                        WARNINGS
                       Please study these warnings very carefully!
================================================================================


INFO   : the flag for use of LIBINT has been found!

================================================================================
                                       INPUT FILE
================================================================================
NAME = nco_pbe.inp
|  1> !uks pbe nori aug-pc-4 grid7 nofinalgrid verytightscf
|  2> 
|  3> %maxcore 1500
|  4> 
|  5> %pal nprocs 1 end
|  6> 
|  7> %scf
|  8> 	maxiter 200
|  9> end
| 10> %elprop
| 11> 	dipole true
| 12> 	 polar 1
| 13> 	 maxiter 200
| 14> end
| 15> 
| 16> * xyz 0 2
| 17> N 0.0000002327 -0.0000000061 -1.2737003115
| 18> C -0.0000004964 0.0000000123 -0.0271008600
| 19> O 0.0000002638 -0.0000000061 1.1312011715
| 20> *
| 21> 
| 22>                          ****END OF INPUT****
================================================================================

                       ****************************
                       * Single Point Calculation *
                       ****************************

---------------------------------
CARTESIAN COORDINATES (ANGSTROEM)
---------------------------------
  N      0.000000   -0.000000   -1.273700
  C     -0.000000    0.000000   -0.027101
  O      0.000000   -0.000000    1.131201

----------------------------
CARTESIAN COORDINATES (A.U.)
----------------------------
  NO LB      ZA    FRAG     MASS         X           Y           Z
   0 N     7.0000    0    14.007    0.000000   -0.000000   -2.406945
   1 C     6.0000    0    12.011   -0.000001    0.000000   -0.051213
   2 O     8.0000    0    15.999    0.000000   -0.000000    2.137660

--------------------------------
INTERNAL COORDINATES (ANGSTROEM)
--------------------------------
 N      0   0   0     0.000000000000     0.00000000     0.00000000
 C      1   0   0     1.246599451500     0.00000000     0.00000000
 O      2   1   0     1.158302031500   179.99992886     0.00000000

---------------------------
INTERNAL COORDINATES (A.U.)
---------------------------
 N      0   0   0     0.000000000000     0.00000000     0.00000000
 C      1   0   0     2.355731562032     0.00000000     0.00000000
 O      2   1   0     2.188873619900   179.99992886     0.00000000

---------------------
BASIS SET INFORMATION
---------------------
There are 3 groups of distinct atoms

 Group   1 Type N   : 27s12p7d4f3g2h contracted to 9s8p7d4f3g2h pattern {1191111111/51111111/1111111/1111/111/11}
 Group   2 Type C   : 28s12p7d4f3g2h contracted to 9s8p7d4f3g2h pattern {11101111111/51111111/1111111/1111/111/11}
 Group   3 Type O   : 27s12p7d4f3g2h contracted to 9s8p7d4f3g2h pattern {1191111111/51111111/1111111/1111/111/11}

Atom   0N    basis set group =>   1
Atom   1C    basis set group =>   2
Atom   2O    basis set group =>   3
------------------------------------------------------------------------------
                           ORCA GTO INTEGRAL CALCULATION
------------------------------------------------------------------------------

                         BASIS SET STATISTICS AND STARTUP INFO

 # of primitive gaussian shells          ...  166
 # of primitive gaussian functions       ...  526
 # of contracted shells                  ...   99
 # of contracted basis functions         ...  435
 Highest angular momentum                ...    5
 Maximum contraction depth               ...   11
 Integral package used                   ... LIBINT
 Integral threshhold            Thresh   ...  1.000e-12
 Primitive cut-off              TCut     ...  1.000e-14


------------------------------ INTEGRAL EVALUATION ----------------------------


 * One electron integrals 
 Pre-screening matrix                    ... done
 Shell pair data                         ... done (   0.002 sec)

-------------------------------------------------------------------------------
                                 ORCA SCF
-------------------------------------------------------------------------------

------------
SCF SETTINGS
------------
Hamiltonian:
 Density Functional     Method          .... DFT(GTOs)
 Exchange Functional    Exchange        .... PBE
   PBE kappa parameter   XKappa         ....  0.804000
   PBE mue parameter    XMuePBE         ....  0.219520
 Correlation Functional Correlation     .... PBE
   PBE beta parameter  CBetaPBE         ....  0.066725
 LDA part of GGA corr.  LDAOpt          .... PW91-LDA
 Gradients option       PostSCFGGA      .... off
   Density functional embedding theory  .... OFF
   NL short-range parameter             ....  6.400000


General Settings:
 Integral files         IntName         .... nco_pbe
 Hartree-Fock type      HFTyp           .... UHF
 Total Charge           Charge          ....    0
 Multiplicity           Mult            ....    2
 Number of Electrons    NEL             ....   21
 Basis Dimension        Dim             ....  435
 Nuclear Repulsion      ENuc            ....     52.0802460375 Eh

Convergence Acceleration:
 DIIS                   CNVDIIS         .... on
   Start iteration      DIISMaxIt       ....    12
   Startup error        DIISStart       ....  0.200000
   # of expansion vecs  DIISMaxEq       ....     5
   Bias factor          DIISBfac        ....   1.050
   Max. coefficient     DIISMaxC        ....  10.000
 Newton-Raphson         CNVNR           .... off
 SOSCF                  CNVSOSCF        .... off
 Level Shifting         CNVShift        .... on
   Level shift para.    LevelShift      ....    0.2500
   Turn off err/grad.   ShiftErr        ....    0.0010
 Zerner damping         CNVZerner       .... off
 Static damping         CNVDamp         .... on
   Fraction old density DampFac         ....    0.7000
   Max. Damping (<1)    DampMax         ....    0.9800
   Min. Damping (>=0)   DampMin         ....    0.0000
   Turn off err/grad.   DampErr         ....    0.1000
 Fernandez-Rico         CNVRico         .... off

SCF Procedure:
 Maximum # iterations   MaxIter         ....   200
 SCF integral mode      SCFMode         .... Direct
   Integral package                     .... LIBINT
 Reset frequency        DirectResetFreq ....    20
 Integral Threshold     Thresh          ....  1.000e-12 Eh
 Primitive CutOff       TCut            ....  1.000e-14 Eh

Convergence Tolerance:
 Convergence Check Mode ConvCheckMode   .... Total+1el-Energy
 Convergence forced     ConvForced      .... 0
 Energy Change          TolE            ....  1.000e-09 Eh
 1-El. energy change                    ....  1.000e-06 Eh
 DIIS Error             TolErr          ....  1.000e-08


Diagonalization of the overlap matrix:
Smallest eigenvalue                        ... 2.391e-07
Time for diagonalization                   ...    0.039 sec
Threshold for overlap eigenvalues          ... 1.000e-08
Number of eigenvalues below threshold      ... 0
Time for construction of square roots      ...    0.026 sec
Total time needed                          ...    0.065 sec

-------------------
DFT GRID GENERATION
-------------------

General Integration Accuracy     IntAcc      ...  5.670
Radial Grid Type                 RadialGrid  ... Gauss-Chebyshev
Angular Grid (max. acc.)         AngularGrid ... Lebedev-770
Angular grid pruning method      GridPruning ... 3 (G Style)
Weight generation scheme         WeightScheme... Becke
Basis function cutoff            BFCut       ...    1.0000e-12
Integration weight cutoff        WCut        ...    1.0000e-14
Grids for H and He will be reduced by one unit

# of grid points (after initial pruning)     ...  75078 (   0.0 sec)
# of grid points (after weights+screening)   ...  74212 (   0.0 sec)
nearest neighbour list constructed           ...    0.0 sec
Grid point re-assignment to atoms done       ...    0.0 sec
Grid point division into batches done        ...    1.6 sec
Reduced shell lists constructed in    2.6 sec

Total number of grid points                  ...    74212
Total number of batches                      ...     1160
Average number of points per batch           ...       63
Average number of grid points per atom       ...    24737
Average number of shells per batch           ...    71.81 (72.53%)
Average number of basis functions per batch  ...   326.04 (74.95%)
Average number of large shells per batch     ...    63.98 (89.09%)
Average number of large basis fcns per batch ...   291.53 (89.42%)
Maximum spatial batch extension              ...  24.48, 23.45, 23.38 au
Average spatial batch extension              ...   2.47,  2.47,  2.11 au

Time for grid setup =    2.611 sec

------------------------------
INITIAL GUESS: MODEL POTENTIAL
------------------------------
Loading Hartree-Fock densities                     ... done
Calculating cut-offs                               ... done
Setting up the integral package                    ... done
Initializing the effective Hamiltonian             ... done
Starting the Coulomb interaction                   ... done (   0.1 sec)
Reading the grid                                   ... done
Mapping shells                                     ... done
Starting the XC term evaluation                    ... done (   5.7 sec)
  promolecular density results
     # of electrons  =     21.000000017
     EX              =    -19.698693509
     EC              =     -0.682605429
     EX+EC           =    -20.381298939
Transforming the Hamiltonian                       ... done (   0.0 sec)
Diagonalizing the Hamiltonian                      ... done (   0.0 sec)
Back transforming the eigenvectors                 ... done (   0.0 sec)
Now organizing SCF variables                       ... done
                      ------------------
                      INITIAL GUESS DONE (   8.7 sec)
                      ------------------
--------------
SCF ITERATIONS
--------------
ITER       Energy         Delta-E        Max-DP      RMS-DP      [F,P]     Damp
               ***  Starting incremental Fock matrix formation  ***
  0   -167.8478556197   0.000000000000 0.01354558  0.00012936  0.1674925 0.7000
  1   -167.8780560011  -0.030200381451 0.00725044  0.00007704  0.0565807 0.7000
                               ***Turning on DIIS***
  2   -167.8858462147  -0.007790213545 0.01077550  0.00011689  0.0223594 0.0000
  3   -167.9038713458  -0.018025131179 0.00367335  0.00004803  0.0352197 0.0000
  4   -167.9057304662  -0.001859120354 0.00345834  0.00001927  0.0170575 0.0000
  5   -167.9062995897  -0.000569123520 0.00091018  0.00000687  0.0052178 0.0000
  6   -167.9063428496  -0.000043259864 0.00021768  0.00000293  0.0033886 0.0000
  7   -167.9063599931  -0.000017143480 0.00022529  0.00000235  0.0006108 0.0000
  8   -167.9063631735  -0.000003180460 0.00009398  0.00000083  0.0002697 0.0000
  9   -167.9063635912  -0.000000417706 0.00003667  0.00000038  0.0001182 0.0000
 10   -167.9063636605  -0.000000069234 0.00001283  0.00000013  0.0000387 0.0000
 11   -167.9063636700  -0.000000009533 0.00001588  0.00000011  0.0000067 0.0000
 12   -167.9063636714  -0.000000001372 0.00000580  0.00000006  0.0000025 0.0000
 13   -167.9063636715  -0.000000000138 0.00001480  0.00000012  0.0000020 0.0000
 14   -167.9063636716  -0.000000000084 0.00002454  0.00000019  0.0000005 0.0000
                 **** Energy Check signals convergence ****

               *****************************************************
               *                     SUCCESS                       *
               *           SCF CONVERGED AFTER  15 CYCLES          *
               *****************************************************


----------------
TOTAL SCF ENERGY
----------------

Total Energy       :         -167.90636367 Eh           -4568.96444 eV

Components:
Nuclear Repulsion  :           52.08024604 Eh            1417.17554 eV
Electronic Energy  :         -219.98660971 Eh           -5986.13998 eV
One Electron Energy:         -330.94658027 Eh           -9005.51428 eV
Two Electron Energy:          110.95997056 Eh            3019.37430 eV

Virial components:
Potential Energy   :         -335.31766247 Eh           -9124.45747 eV
Kinetic Energy     :          167.41129880 Eh            4555.49304 eV
Virial Ratio       :            2.00295718


DFT components:
N(Alpha)           :       11.000000074200 electrons
N(Beta)            :       10.000000073427 electrons
N(Total)           :       21.000000147627 electrons
E(X)               :      -19.934816136862 Eh       
E(C)               :       -0.685566359624 Eh       
E(XC)              :      -20.620382496486 Eh       
DFET-embed. en.    :        0.000000000000 Eh       

---------------
SCF CONVERGENCE
---------------

  Last Energy change         ...   -1.7963e-11  Tolerance :   1.0000e-09
  Last MAX-Density change    ...    5.2700e-05  Tolerance :   1.0000e-08
  Last RMS-Density change    ...    3.6417e-07  Tolerance :   1.0000e-09
  Last DIIS Error            ...    1.4761e-07  Tolerance :   1.0000e-08

             **** THE GBW FILE WAS UPDATED (nco_pbe.gbw) ****
             **** DENSITY FILE WAS UPDATED (nco_pbe.scfp.tmp) ****
             **** ENERGY FILE WAS UPDATED (nco_pbe.en.tmp) ****
----------------------
UHF SPIN CONTAMINATION
----------------------

Warning: in a DFT calculation there is little theoretical justification to 
         calculate <S**2> as in Hartree-Fock theory. We will do it anyways
         but you should keep in mind that the values have only limited relevance

Expectation value of <S**2>     :     0.755246
Ideal value S*(S+1) for S=0.5   :     0.750000
Deviation                       :     0.005246

----------------
ORBITAL ENERGIES
----------------
                 SPIN UP ORBITALS
  NO   OCC          E(Eh)            E(eV) 
   0   1.0000     -18.864532      -513.3300 
   1   1.0000     -14.063397      -382.6845 
   2   1.0000     -10.036645      -273.1110 
   3   1.0000      -1.082219       -29.4487 
   4   1.0000      -0.875874       -23.8337 
   5   1.0000      -0.512360       -13.9420 
   6   1.0000      -0.474735       -12.9182 
   7   1.0000      -0.453129       -12.3303 
   8   1.0000      -0.388580       -10.5738 
   9   1.0000      -0.328399        -8.9362 
  10   1.0000      -0.290444        -7.9034 
  11   0.0000      -0.029984        -0.8159 
  12   0.0000      -0.029313        -0.7976 
  13   0.0000      -0.007058        -0.1921 
  14   0.0000       0.014492         0.3944 
  15   0.0000       0.015983         0.4349 
  16   0.0000       0.016569         0.4509 
  17   0.0000       0.035835         0.9751 
  18   0.0000       0.049635         1.3506 
  19   0.0000       0.050503         1.3743 
  20   0.0000       0.056967         1.5501 
  21   0.0000       0.058986         1.6051 
  22   0.0000       0.060927         1.6579 
  23   0.0000       0.062963         1.7133 
  24   0.0000       0.080864         2.2004 
  25   0.0000       0.080938         2.2024 
  26   0.0000       0.092334         2.5125 
  27   0.0000       0.104918         2.8550 
  28   0.0000       0.106054         2.8859 
  29   0.0000       0.113857         3.0982 
  30   0.0000       0.134126         3.6498 
  31   0.0000       0.136586         3.7167 
  32   0.0000       0.152366         4.1461 
  33   0.0000       0.160501         4.3674 
  34   0.0000       0.160506         4.3676 
  35   0.0000       0.164272         4.4701 
  36   0.0000       0.180546         4.9129 
  37   0.0000       0.183070         4.9816 
  38   0.0000       0.183179         4.9846 
  39   0.0000       0.184076         5.0090 
  40   0.0000       0.206367         5.6155 
  41   0.0000       0.206490         5.6189 
  42   0.0000       0.211288         5.7494 
  43   0.0000       0.216441         5.8897 
  44   0.0000       0.220810         6.0085 
  45   0.0000       0.221711         6.0331 
  46   0.0000       0.244808         6.6616 
  47   0.0000       0.247371         6.7313 
  48   0.0000       0.250814         6.8250 
  49   0.0000       0.269725         7.3396 
  50   0.0000       0.269748         7.3402 
  51   0.0000       0.294244         8.0068 
  52   0.0000       0.300798         8.1851 
  53   0.0000       0.304248         8.2790 
  54   0.0000       0.304629         8.2894 
  55   0.0000       0.325335         8.8528 
  56   0.0000       0.325338         8.8529 
  57   0.0000       0.332616         9.0510 
  58   0.0000       0.332626         9.0512 
  59   0.0000       0.333325         9.0702 
  60   0.0000       0.334863         9.1121 
  61   0.0000       0.343814         9.3557 
  62   0.0000       0.345536         9.4025 
  63   0.0000       0.345537         9.4025 
  64   0.0000       0.365613         9.9488 
  65   0.0000       0.365675         9.9505 
  66   0.0000       0.422955        11.5092 
  67   0.0000       0.422970        11.5096 
  68   0.0000       0.429069        11.6756 
  69   0.0000       0.434664        11.8278 
  70   0.0000       0.434874        11.8335 
  71   0.0000       0.444015        12.0823 
  72   0.0000       0.448359        12.2005 
  73   0.0000       0.448757        12.2113 
  74   0.0000       0.461968        12.5708 
  75   0.0000       0.465670        12.6715 
  76   0.0000       0.469623        12.7791 
  77   0.0000       0.486585        13.2407 
  78   0.0000       0.486680        13.2432 
  79   0.0000       0.487610        13.2685 
  80   0.0000       0.487610        13.2685 
  81   0.0000       0.489955        13.3323 
  82   0.0000       0.496695        13.5158 
  83   0.0000       0.498800        13.5731 
  84   0.0000       0.521936        14.2026 
  85   0.0000       0.522002        14.2044 
  86   0.0000       0.529103        14.3976 
  87   0.0000       0.529103        14.3976 
  88   0.0000       0.548926        14.9370 
  89   0.0000       0.548926        14.9370 
  90   0.0000       0.564698        15.3662 
  91   0.0000       0.583867        15.8878 
  92   0.0000       0.590298        16.0628 
  93   0.0000       0.615712        16.7544 
  94   0.0000       0.623578        16.9684 
  95   0.0000       0.623581        16.9685 
  96   0.0000       0.634497        17.2655 
  97   0.0000       0.634566        17.2674 
  98   0.0000       0.653283        17.7767 
  99   0.0000       0.657452        17.8902 
 100   0.0000       0.657873        17.9016 
 101   0.0000       0.660810        17.9816 
 102   0.0000       0.662784        18.0353 
 103   0.0000       0.689516        18.7627 
 104   0.0000       0.724093        19.7036 
 105   0.0000       0.724093        19.7036 
 106   0.0000       0.735295        20.0084 
 107   0.0000       0.738179        20.0869 
 108   0.0000       0.739339        20.1184 
 109   0.0000       0.739396        20.1200 
 110   0.0000       0.766844        20.8669 
 111   0.0000       0.766845        20.8669 
 112   0.0000       0.775005        21.0890 
 113   0.0000       0.806718        21.9519 
 114   0.0000       0.812301        22.1038 
 115   0.0000       0.816956        22.2305 
 116   0.0000       0.833788        22.6885 
 117   0.0000       0.834162        22.6987 
 118   0.0000       0.854608        23.2551 
 119   0.0000       0.854608        23.2551 
 120   0.0000       0.854682        23.2571 
 121   0.0000       0.854682        23.2571 
 122   0.0000       0.860649        23.4195 
 123   0.0000       0.861849        23.4521 
 124   0.0000       0.868320        23.6282 
 125   0.0000       0.878406        23.9027 
 126   0.0000       0.878579        23.9073 
 127   0.0000       0.890808        24.2401 
 128   0.0000       0.890808        24.2401 
 129   0.0000       0.901417        24.5288 
 130   0.0000       0.926379        25.2080 
 131   0.0000       0.926379        25.2081 
 132   0.0000       0.938635        25.5416 
 133   0.0000       0.961336        26.1593 
 134   0.0000       0.968015        26.3410 
 135   0.0000       0.968180        26.3455 
 136   0.0000       0.972721        26.4691 
 137   0.0000       0.988781        26.9061 
 138   0.0000       0.988816        26.9070 
 139   0.0000       1.016642        27.6642 
 140   0.0000       1.043147        28.3855 
 141   0.0000       1.050871        28.5957 
 142   0.0000       1.052796        28.6480 
 143   0.0000       1.053083        28.6558 
 144   0.0000       1.057207        28.7681 
 145   0.0000       1.057207        28.7681 
 146   0.0000       1.116487        30.3811 
 147   0.0000       1.116487        30.3811 
 148   0.0000       1.118196        30.4277 
 149   0.0000       1.125340        30.6221 
 150   0.0000       1.141740        31.0683 
 151   0.0000       1.150340        31.3023 
 152   0.0000       1.150927        31.3183 
 153   0.0000       1.204367        32.7725 
 154   0.0000       1.210031        32.9266 
 155   0.0000       1.214296        33.0427 
 156   0.0000       1.220902        33.2224 
 157   0.0000       1.220946        33.2236 
 158   0.0000       1.238650        33.7054 
 159   0.0000       1.253073        34.0978 
 160   0.0000       1.253152        34.1000 
 161   0.0000       1.321978        35.9728 
 162   0.0000       1.323698        36.0196 
 163   0.0000       1.334725        36.3197 
 164   0.0000       1.385222        37.6938 
 165   0.0000       1.391981        37.8777 
 166   0.0000       1.413266        38.4569 
 167   0.0000       1.413374        38.4599 
 168   0.0000       1.416507        38.5451 
 169   0.0000       1.485051        40.4103 
 170   0.0000       1.621679        44.1281 
 171   0.0000       1.638936        44.5977 
 172   0.0000       1.654600        45.0240 
 173   0.0000       1.703564        46.3563 
 174   0.0000       1.703585        46.3569 
 175   0.0000       1.747464        47.5509 
 176   0.0000       1.748452        47.5778 
 177   0.0000       1.758674        47.8559 
 178   0.0000       1.793927        48.8152 
 179   0.0000       1.793932        48.8154 
 180   0.0000       1.865131        50.7528 
 181   0.0000       1.895438        51.5775 
 182   0.0000       1.915272        52.1172 
 183   0.0000       1.937570        52.7240 
 184   0.0000       1.948824        53.0302 
 185   0.0000       1.991327        54.1868 
 186   0.0000       1.991422        54.1893 
 187   0.0000       2.027961        55.1836 
 188   0.0000       2.027961        55.1836 
 189   0.0000       2.107642        57.3519 
 190   0.0000       2.109226        57.3950 
 191   0.0000       2.109480        57.4019 
 192   0.0000       2.175439        59.1967 
 193   0.0000       2.189229        59.5719 
 194   0.0000       2.246598        61.1330 
 195   0.0000       2.304789        62.7165 
 196   0.0000       2.305004        62.7223 
 197   0.0000       2.313485        62.9531 
 198   0.0000       2.329263        63.3825 
 199   0.0000       2.369315        64.4724 
 200   0.0000       2.399596        65.2963 
 201   0.0000       2.410089        65.5819 
 202   0.0000       2.455904        66.8285 
 203   0.0000       2.620032        71.2947 
 204   0.0000       2.632334        71.6294 
 205   0.0000       2.742916        74.6385 
 206   0.0000       2.770513        75.3895 
 207   0.0000       2.771143        75.4066 
 208   0.0000       2.805761        76.3487 
 209   0.0000       3.050533        83.0092 
 210   0.0000       3.050829        83.0173 
 211   0.0000       3.143352        85.5349 
 212   0.0000       3.211372        87.3859 
 213   0.0000       3.233632        87.9916 
 214   0.0000       3.275570        89.1328 
 215   0.0000       3.293591        89.6232 
 216   0.0000       3.427202        93.2589 
 217   0.0000       3.516061        95.6769 
 218   0.0000       3.601607        98.0047 
 219   0.0000       3.619014        98.4784 
 220   0.0000       3.881353       105.6170 
 221   0.0000       3.882084       105.6369 
 222   0.0000       3.937615       107.1479 
 223   0.0000       3.988701       108.5381 
 224   0.0000       3.992491       108.6412 
 225   0.0000       3.992492       108.6412 
 226   0.0000       4.009302       109.0986 
 227   0.0000       4.032021       109.7169 
 228   0.0000       4.037532       109.8668 
 229   0.0000       4.037604       109.8688 
 230   0.0000       4.196480       114.1920 
 231   0.0000       4.196580       114.1947 
 232   0.0000       4.206428       114.4627 
 233   0.0000       4.206430       114.4628 
 234   0.0000       4.349088       118.3447 
 235   0.0000       4.362039       118.6971 
 236   0.0000       4.374094       119.0251 
 237   0.0000       4.494526       122.3023 
 238   0.0000       4.499865       122.4476 
 239   0.0000       4.500019       122.4518 
 240   0.0000       4.526716       123.1782 
 241   0.0000       4.594471       125.0219 
 242   0.0000       4.595347       125.0458 
 243   0.0000       4.600055       125.1739 
 244   0.0000       4.618703       125.6813 
 245   0.0000       4.715240       128.3082 
 246   0.0000       4.715333       128.3107 
 247   0.0000       4.724873       128.5703 
 248   0.0000       4.745173       129.1227 
 249   0.0000       4.971211       135.2735 
 250   0.0000       4.971325       135.2766 
 251   0.0000       4.971337       135.2770 
 252   0.0000       4.986738       135.6960 
 253   0.0000       5.081422       138.2725 
 254   0.0000       5.081438       138.2730 
 255   0.0000       5.098936       138.7491 
 256   0.0000       5.150424       140.1502 
 257   0.0000       5.332583       145.1070 
 258   0.0000       5.333284       145.1260 
 259   0.0000       5.417298       147.4122 
 260   0.0000       5.417312       147.4125 
 261   0.0000       5.550373       151.0333 
 262   0.0000       5.570161       151.5718 
 263   0.0000       5.779785       157.2759 
 264   0.0000       5.792819       157.6306 
 265   0.0000       5.792961       157.6345 
 266   0.0000       5.899809       160.5420 
 267   0.0000       5.899809       160.5420 
 268   0.0000       6.146881       167.2651 
 269   0.0000       6.332318       172.3111 
 270   0.0000       6.352131       172.8503 
 271   0.0000       6.505618       177.0269 
 272   0.0000       6.505618       177.0269 
 273   0.0000       6.608897       179.8372 
 274   0.0000       6.628807       180.3790 
 275   0.0000       6.665842       181.3868 
 276   0.0000       6.667454       181.4307 
 277   0.0000       6.794847       184.8972 
 278   0.0000       6.891487       187.5269 
 279   0.0000       6.939279       188.8274 
 280   0.0000       6.965519       189.5414 
 281   0.0000       7.013327       190.8423 
 282   0.0000       7.014463       190.8732 
 283   0.0000       7.282560       198.1685 
 284   0.0000       7.633768       207.7254 
 285   0.0000       7.656389       208.3409 
 286   0.0000       7.882937       214.5056 
 287   0.0000       8.077513       219.8003 
 288   0.0000       8.084040       219.9779 
 289   0.0000       8.090839       220.1629 
 290   0.0000       8.255417       224.6413 
 291   0.0000       8.270771       225.0591 
 292   0.0000       8.617323       234.4893 
 293   0.0000       8.816743       239.9158 
 294   0.0000       8.841325       240.5847 
 295   0.0000       9.144022       248.8215 
 296   0.0000       9.426194       256.4998 
 297   0.0000       9.438606       256.8375 
 298   0.0000       9.438666       256.8392 
 299   0.0000       9.469052       257.6660 
 300   0.0000       9.771945       265.9081 
 301   0.0000      10.187555       277.2175 
 302   0.0000      10.187573       277.2179 
 303   0.0000      10.227952       278.3167 
 304   0.0000      10.242873       278.7228 
 305   0.0000      10.306908       280.4652 
 306   0.0000      10.306913       280.4654 
 307   0.0000      10.367952       282.1263 
 308   0.0000      10.367966       282.1267 
 309   0.0000      10.414714       283.3988 
 310   0.0000      10.414715       283.3988 
 311   0.0000      10.420172       283.5473 
 312   0.0000      10.437641       284.0227 
 313   0.0000      10.518605       286.2258 
 314   0.0000      10.667513       290.2778 
 315   0.0000      10.667513       290.2778 
 316   0.0000      10.872440       295.8541 
 317   0.0000      10.873073       295.8714 
 318   0.0000      10.959688       298.2283 
 319   0.0000      11.084129       301.6145 
 320   0.0000      11.105773       302.2034 
 321   0.0000      11.105798       302.2041 
 322   0.0000      11.238646       305.8191 
 323   0.0000      11.260298       306.4083 
 324   0.0000      11.326479       308.2092 
 325   0.0000      11.326480       308.2092 
 326   0.0000      11.345185       308.7182 
 327   0.0000      11.345593       308.7293 
 328   0.0000      11.369761       309.3869 
 329   0.0000      11.429697       311.0179 
 330   0.0000      11.429701       311.0180 
 331   0.0000      11.532786       313.8231 
 332   0.0000      11.533013       313.8292 
 333   0.0000      11.664546       317.4084 
 334   0.0000      11.664842       317.4165 
 335   0.0000      11.692213       318.1613 
 336   0.0000      11.692216       318.1614 
 337   0.0000      11.693818       318.2050 
 338   0.0000      11.693819       318.2050 
 339   0.0000      11.786771       320.7344 
 340   0.0000      11.786884       320.7374 
 341   0.0000      11.948959       325.1477 
 342   0.0000      11.948959       325.1477 
 343   0.0000      12.028025       327.2992 
 344   0.0000      12.117384       329.7308 
 345   0.0000      12.117421       329.7318 
 346   0.0000      12.212248       332.3122 
 347   0.0000      12.212248       332.3122 
 348   0.0000      12.262642       333.6834 
 349   0.0000      12.286689       334.3378 
 350   0.0000      12.537536       341.1637 
 351   0.0000      12.537560       341.1644 
 352   0.0000      12.630920       343.7048 
 353   0.0000      12.672071       344.8246 
 354   0.0000      12.690218       345.3184 
 355   0.0000      13.047132       355.0305 
 356   0.0000      13.048254       355.0610 
 357   0.0000      13.145375       357.7038 
 358   0.0000      13.631767       370.9392 
 359   0.0000      13.697719       372.7339 
 360   0.0000      13.697724       372.7340 
 361   0.0000      13.819185       376.0391 
 362   0.0000      13.837309       376.5323 
 363   0.0000      14.173697       385.6859 
 364   0.0000      14.173763       385.6877 
 365   0.0000      14.190722       386.1492 
 366   0.0000      14.190730       386.1494 
 367   0.0000      14.369497       391.0139 
 368   0.0000      14.388505       391.5311 
 369   0.0000      14.433184       392.7469 
 370   0.0000      14.433380       392.7522 
 371   0.0000      14.649051       398.6209 
 372   0.0000      15.164793       412.6550 
 373   0.0000      15.165382       412.6710 
 374   0.0000      15.677854       426.6161 
 375   0.0000      15.709843       427.4866 
 376   0.0000      15.788377       429.6236 
 377   0.0000      16.168296       439.9617 
 378   0.0000      16.189327       440.5340 
 379   0.0000      16.249035       442.1587 
 380   0.0000      16.534414       449.9243 
 381   0.0000      16.534564       449.9284 
 382   0.0000      16.870244       459.0627 
 383   0.0000      16.870248       459.0628 
 384   0.0000      16.901724       459.9193 
 385   0.0000      16.901725       459.9193 
 386   0.0000      17.187925       467.7072 
 387   0.0000      17.187932       467.7074 
 388   0.0000      17.258926       469.6392 
 389   0.0000      17.450461       474.8512 
 390   0.0000      17.477156       475.5776 
 391   0.0000      17.662316       480.6161 
 392   0.0000      18.077039       491.9012 
 393   0.0000      18.077055       491.9017 
 394   0.0000      18.201758       495.2950 
 395   0.0000      18.225871       495.9512 
 396   0.0000      18.735394       509.8160 
 397   0.0000      18.767333       510.6851 
 398   0.0000      18.785577       511.1815 
 399   0.0000      19.453509       529.3569 
 400   0.0000      20.258446       551.2603 
 401   0.0000      20.268867       551.5439 
 402   0.0000      20.447012       556.3915 
 403   0.0000      22.906973       623.3304 
 404   0.0000      22.993098       625.6740 
 405   0.0000      22.993111       625.6743 
 406   0.0000      24.436212       664.9431 
 407   0.0000      24.454700       665.4462 
 408   0.0000      25.210688       686.0177 
 409   0.0000      26.253889       714.4046 
 410   0.0000      26.288235       715.3392 
 411   0.0000      26.751523       727.9460 
 412   0.0000      28.111198       764.9446 
 413   0.0000      30.488658       829.6386 
 414   0.0000      31.851902       866.7343 
 415   0.0000      31.851913       866.7346 
 416   0.0000      32.090482       873.2264 
 417   0.0000      32.109991       873.7573 
 418   0.0000      33.185074       903.0118 
 419   0.0000      33.190701       903.1649 
 420   0.0000      34.745433       945.4713 
 421   0.0000      36.248725       986.3779 
 422   0.0000      47.648181      1296.5729 
 423   0.0000      47.648383      1296.5784 
 424   0.0000      48.027965      1306.9074 
 425   0.0000      48.053211      1307.5944 
 426   0.0000      48.807489      1328.1193 
 427   0.0000      66.529003      1810.3462 
 428   0.0000      66.529065      1810.3479 
 429   0.0000      67.396170      1833.9430 
 430   0.0000      67.410648      1834.3370 
 431   0.0000      68.990473      1877.3262 
 432   0.0000      77.257014      2102.2702 
 433   0.0000     103.894531      2827.1139 
 434   0.0000     143.809445      3913.2539 

                 SPIN DOWN ORBITALS
  NO   OCC          E(Eh)            E(eV) 
   0   1.0000     -18.857332      -513.1341 
   1   1.0000     -14.049922      -382.3178 
   2   1.0000     -10.037405      -273.1317 
   3   1.0000      -1.070810       -29.1382 
   4   1.0000      -0.844628       -22.9835 
   5   1.0000      -0.503280       -13.6950 
   6   1.0000      -0.449293       -12.2259 
   7   1.0000      -0.447152       -12.1676 
   8   1.0000      -0.369947       -10.0668 
   9   1.0000      -0.278111        -7.5678 
  10   0.0000      -0.261503        -7.1159 
  11   0.0000      -0.026023        -0.7081 
  12   0.0000      -0.003173        -0.0864 
  13   0.0000       0.002931         0.0798 
  14   0.0000       0.016252         0.4422 
  15   0.0000       0.017136         0.4663 
  16   0.0000       0.017500         0.4762 
  17   0.0000       0.036637         0.9969 
  18   0.0000       0.050546         1.3754 
  19   0.0000       0.051479         1.4008 
  20   0.0000       0.057682         1.5696 
  21   0.0000       0.061271         1.6673 
  22   0.0000       0.062048         1.6884 
  23   0.0000       0.064238         1.7480 
  24   0.0000       0.082409         2.2425 
  25   0.0000       0.082726         2.2511 
  26   0.0000       0.093858         2.5540 
  27   0.0000       0.105936         2.8827 
  28   0.0000       0.106369         2.8944 
  29   0.0000       0.114874         3.1259 
  30   0.0000       0.137108         3.7309 
  31   0.0000       0.138713         3.7746 
  32   0.0000       0.155511         4.2317 
  33   0.0000       0.162549         4.4232 
  34   0.0000       0.162990         4.4352 
  35   0.0000       0.165573         4.5055 
  36   0.0000       0.184293         5.0149 
  37   0.0000       0.184373         5.0170 
  38   0.0000       0.184708         5.0262 
  39   0.0000       0.186612         5.0780 
  40   0.0000       0.208532         5.6745 
  41   0.0000       0.208811         5.6820 
  42   0.0000       0.211474         5.7545 
  43   0.0000       0.220788         6.0079 
  44   0.0000       0.221488         6.0270 
  45   0.0000       0.222258         6.0479 
  46   0.0000       0.247248         6.7280 
  47   0.0000       0.247553         6.7363 
  48   0.0000       0.252787         6.8787 
  49   0.0000       0.271212         7.3801 
  50   0.0000       0.271573         7.3899 
  51   0.0000       0.294742         8.0203 
  52   0.0000       0.304980         8.2989 
  53   0.0000       0.306789         8.3482 
  54   0.0000       0.307954         8.3798 
  55   0.0000       0.327769         8.9190 
  56   0.0000       0.327909         8.9229 
  57   0.0000       0.333663         9.0794 
  58   0.0000       0.333999         9.0886 
  59   0.0000       0.334937         9.1141 
  60   0.0000       0.335911         9.1406 
  61   0.0000       0.344851         9.3839 
  62   0.0000       0.346915         9.4400 
  63   0.0000       0.346950         9.4410 
  64   0.0000       0.370402        10.0792 
  65   0.0000       0.371203        10.1009 
  66   0.0000       0.425458        11.5773 
  67   0.0000       0.425561        11.5801 
  68   0.0000       0.435629        11.8541 
  69   0.0000       0.438720        11.9382 
  70   0.0000       0.438996        11.9457 
  71   0.0000       0.446913        12.1611 
  72   0.0000       0.451489        12.2856 
  73   0.0000       0.452182        12.3045 
  74   0.0000       0.463995        12.6260 
  75   0.0000       0.469952        12.7880 
  76   0.0000       0.470651        12.8071 
  77   0.0000       0.487807        13.2739 
  78   0.0000       0.489583        13.3222 
  79   0.0000       0.489623        13.3233 
  80   0.0000       0.489929        13.3317 
  81   0.0000       0.490194        13.3389 
  82   0.0000       0.498851        13.5744 
  83   0.0000       0.500396        13.6165 
  84   0.0000       0.524261        14.2659 
  85   0.0000       0.524656        14.2766 
  86   0.0000       0.531669        14.4674 
  87   0.0000       0.531761        14.4699 
  88   0.0000       0.550048        14.9676 
  89   0.0000       0.550053        14.9677 
  90   0.0000       0.566153        15.4058 
  91   0.0000       0.591581        16.0977 
  92   0.0000       0.593031        16.1372 
  93   0.0000       0.620080        16.8732 
  94   0.0000       0.625322        17.0159 
  95   0.0000       0.625355        17.0168 
  96   0.0000       0.636253        17.3133 
  97   0.0000       0.636628        17.3235 
  98   0.0000       0.657862        17.9013 
  99   0.0000       0.658692        17.9239 
 100   0.0000       0.662352        18.0235 
 101   0.0000       0.666337        18.1320 
 102   0.0000       0.667284        18.1577 
 103   0.0000       0.691336        18.8122 
 104   0.0000       0.728767        19.8307 
 105   0.0000       0.728812        19.8320 
 106   0.0000       0.738144        20.0859 
 107   0.0000       0.739200        20.1146 
 108   0.0000       0.745000        20.2725 
 109   0.0000       0.745964        20.2987 
 110   0.0000       0.772620        21.0241 
 111   0.0000       0.772834        21.0299 
 112   0.0000       0.781847        21.2751 
 113   0.0000       0.816133        22.2081 
 114   0.0000       0.818339        22.2681 
 115   0.0000       0.820161        22.3177 
 116   0.0000       0.839520        22.8445 
 117   0.0000       0.840472        22.8704 
 118   0.0000       0.855707        23.2850 
 119   0.0000       0.855759        23.2864 
 120   0.0000       0.856921        23.3180 
 121   0.0000       0.856942        23.3186 
 122   0.0000       0.867734        23.6122 
 123   0.0000       0.869765        23.6675 
 124   0.0000       0.873640        23.7730 
 125   0.0000       0.881711        23.9926 
 126   0.0000       0.882149        24.0045 
 127   0.0000       0.896194        24.3867 
 128   0.0000       0.896213        24.3872 
 129   0.0000       0.905755        24.6469 
 130   0.0000       0.929158        25.2837 
 131   0.0000       0.929176        25.2842 
 132   0.0000       0.942760        25.6538 
 133   0.0000       0.968831        26.3632 
 134   0.0000       0.970362        26.4049 
 135   0.0000       0.973805        26.4986 
 136   0.0000       0.976679        26.5768 
 137   0.0000       0.991110        26.9695 
 138   0.0000       0.991197        26.9718 
 139   0.0000       1.020953        27.7816 
 140   0.0000       1.051567        28.6146 
 141   0.0000       1.051694        28.6181 
 142   0.0000       1.056938        28.7607 
 143   0.0000       1.057462        28.7750 
 144   0.0000       1.059393        28.8276 
 145   0.0000       1.059399        28.8277 
 146   0.0000       1.119658        30.4674 
 147   0.0000       1.119695        30.4684 
 148   0.0000       1.126467        30.6527 
 149   0.0000       1.128091        30.6969 
 150   0.0000       1.144755        31.1504 
 151   0.0000       1.153874        31.3985 
 152   0.0000       1.154439        31.4139 
 153   0.0000       1.210790        32.9473 
 154   0.0000       1.211277        32.9605 
 155   0.0000       1.217853        33.1395 
 156   0.0000       1.223355        33.2892 
 157   0.0000       1.223469        33.2923 
 158   0.0000       1.242445        33.8087 
 159   0.0000       1.255726        34.1700 
 160   0.0000       1.256185        34.1825 
 161   0.0000       1.325039        36.0562 
 162   0.0000       1.336137        36.3581 
 163   0.0000       1.337622        36.3986 
 164   0.0000       1.391794        37.8726 
 165   0.0000       1.392082        37.8805 
 166   0.0000       1.419052        38.6144 
 167   0.0000       1.434985        39.0479 
 168   0.0000       1.438405        39.1410 
 169   0.0000       1.492200        40.6048 
 170   0.0000       1.629462        44.3399 
 171   0.0000       1.657267        45.0965 
 172   0.0000       1.662032        45.2262 
 173   0.0000       1.727464        47.0067 
 174   0.0000       1.727913        47.0189 
 175   0.0000       1.760112        47.8951 
 176   0.0000       1.760570        47.9075 
 177   0.0000       1.763464        47.9863 
 178   0.0000       1.799100        48.9560 
 179   0.0000       1.799206        48.9589 
 180   0.0000       1.871990        50.9394 
 181   0.0000       1.920923        52.2710 
 182   0.0000       1.928017        52.4640 
 183   0.0000       1.951255        53.0964 
 184   0.0000       1.954993        53.1981 
 185   0.0000       2.003998        54.5316 
 186   0.0000       2.005211        54.5646 
 187   0.0000       2.035424        55.3867 
 188   0.0000       2.035479        55.3882 
 189   0.0000       2.111460        57.4558 
 190   0.0000       2.112641        57.4879 
 191   0.0000       2.113762        57.5184 
 192   0.0000       2.191529        59.6345 
 193   0.0000       2.192215        59.6532 
 194   0.0000       2.256882        61.4129 
 195   0.0000       2.313268        62.9472 
 196   0.0000       2.314167        62.9717 
 197   0.0000       2.330456        63.4149 
 198   0.0000       2.331347        63.4392 
 199   0.0000       2.372337        64.5546 
 200   0.0000       2.408197        65.5304 
 201   0.0000       2.409512        65.5662 
 202   0.0000       2.465833        67.0987 
 203   0.0000       2.633734        71.6675 
 204   0.0000       2.635116        71.7052 
 205   0.0000       2.756747        75.0149 
 206   0.0000       2.778469        75.6060 
 207   0.0000       2.779345        75.6298 
 208   0.0000       2.816226        76.6334 
 209   0.0000       3.090979        84.1098 
 210   0.0000       3.097027        84.2744 
 211   0.0000       3.152412        85.7815 
 212   0.0000       3.237594        88.0994 
 213   0.0000       3.243368        88.2565 
 214   0.0000       3.296189        89.6939 
 215   0.0000       3.299128        89.7738 
 216   0.0000       3.441272        93.6418 
 217   0.0000       3.523703        95.8848 
 218   0.0000       3.621897        98.5568 
 219   0.0000       3.624930        98.6394 
 220   0.0000       3.893591       105.9500 
 221   0.0000       3.894563       105.9764 
 222   0.0000       3.945821       107.3713 
 223   0.0000       3.992985       108.6546 
 224   0.0000       3.992994       108.6549 
 225   0.0000       4.013895       109.2236 
 226   0.0000       4.018887       109.3595 
 227   0.0000       4.047484       110.1377 
 228   0.0000       4.050126       110.2095 
 229   0.0000       4.050357       110.2158 
 230   0.0000       4.208693       114.5243 
 231   0.0000       4.208771       114.5265 
 232   0.0000       4.215353       114.7056 
 233   0.0000       4.216952       114.7491 
 234   0.0000       4.370653       118.9315 
 235   0.0000       4.382002       119.2403 
 236   0.0000       4.390206       119.4636 
 237   0.0000       4.503080       122.5350 
 238   0.0000       4.538227       123.4914 
 239   0.0000       4.546719       123.7225 
 240   0.0000       4.548175       123.7621 
 241   0.0000       4.609027       125.4180 
 242   0.0000       4.610655       125.4623 
 243   0.0000       4.620280       125.7242 
 244   0.0000       4.622727       125.7908 
 245   0.0000       4.715238       128.3081 
 246   0.0000       4.715675       128.3200 
 247   0.0000       4.748840       129.2225 
 248   0.0000       4.752063       129.3102 
 249   0.0000       4.988045       135.7316 
 250   0.0000       4.988629       135.7475 
 251   0.0000       5.021953       136.6543 
 252   0.0000       5.022312       136.6641 
 253   0.0000       5.101195       138.8106 
 254   0.0000       5.101315       138.8138 
 255   0.0000       5.112180       139.1095 
 256   0.0000       5.163616       140.5091 
 257   0.0000       5.353746       145.6828 
 258   0.0000       5.356735       145.7642 
 259   0.0000       5.445699       148.1850 
 260   0.0000       5.446174       148.1979 
 261   0.0000       5.571720       151.6142 
 262   0.0000       5.573964       151.6753 
 263   0.0000       5.789194       157.5320 
 264   0.0000       5.807497       158.0300 
 265   0.0000       5.808910       158.0685 
 266   0.0000       5.918221       161.0430 
 267   0.0000       5.918228       161.0432 
 268   0.0000       6.157538       167.5551 
 269   0.0000       6.354000       172.9011 
 270   0.0000       6.356400       172.9664 
 271   0.0000       6.519634       177.4083 
 272   0.0000       6.519761       177.4117 
 273   0.0000       6.630551       180.4265 
 274   0.0000       6.633137       180.4968 
 275   0.0000       6.701583       182.3593 
 276   0.0000       6.706061       182.4812 
 277   0.0000       6.809007       185.2825 
 278   0.0000       6.906832       187.9445 
 279   0.0000       6.969792       189.6577 
 280   0.0000       6.979366       189.9182 
 281   0.0000       7.057401       192.0416 
 282   0.0000       7.065088       192.2508 
 283   0.0000       7.299751       198.6363 
 284   0.0000       7.658975       208.4113 
 285   0.0000       7.663372       208.5310 
 286   0.0000       7.895204       214.8394 
 287   0.0000       8.095124       220.2795 
 288   0.0000       8.099158       220.3893 
 289   0.0000       8.101022       220.4400 
 290   0.0000       8.272008       225.0928 
 291   0.0000       8.272212       225.0983 
 292   0.0000       8.640203       235.1119 
 293   0.0000       8.844072       240.6594 
 294   0.0000       8.848537       240.7809 
 295   0.0000       9.153788       249.0872 
 296   0.0000       9.465646       257.5733 
 297   0.0000       9.467305       257.6185 
 298   0.0000       9.483792       258.0671 
 299   0.0000       9.504996       258.6441 
 300   0.0000       9.787979       266.3445 
 301   0.0000      10.189041       277.2579 
 302   0.0000      10.189554       277.2719 
 303   0.0000      10.241326       278.6807 
 304   0.0000      10.241683       278.6904 
 305   0.0000      10.308524       280.5092 
 306   0.0000      10.308627       280.5120 
 307   0.0000      10.378297       282.4078 
 308   0.0000      10.378593       282.4159 
 309   0.0000      10.422354       283.6067 
 310   0.0000      10.422381       283.6074 
 311   0.0000      10.439640       284.0771 
 312   0.0000      10.442659       284.1592 
 313   0.0000      10.533213       286.6233 
 314   0.0000      10.664452       290.1945 
 315   0.0000      10.664453       290.1945 
 316   0.0000      10.891044       296.3604 
 317   0.0000      10.893317       296.4222 
 318   0.0000      10.977131       298.7029 
 319   0.0000      11.100908       302.0711 
 320   0.0000      11.183426       304.3165 
 321   0.0000      11.186135       304.3902 
 322   0.0000      11.264041       306.5101 
 323   0.0000      11.268394       306.6286 
 324   0.0000      11.357520       309.0538 
 325   0.0000      11.372631       309.4650 
 326   0.0000      11.379053       309.6398 
 327   0.0000      11.394699       310.0655 
 328   0.0000      11.394978       310.0731 
 329   0.0000      11.469953       312.1133 
 330   0.0000      11.470176       312.1193 
 331   0.0000      11.542603       314.0902 
 332   0.0000      11.544140       314.1320 
 333   0.0000      11.674089       317.6681 
 334   0.0000      11.675273       317.7003 
 335   0.0000      11.696824       318.2868 
 336   0.0000      11.696930       318.2897 
 337   0.0000      11.701013       318.4008 
 338   0.0000      11.701206       318.4060 
 339   0.0000      11.813908       321.4728 
 340   0.0000      11.818252       321.5910 
 341   0.0000      11.973579       325.8176 
 342   0.0000      11.973580       325.8177 
 343   0.0000      12.032609       327.4239 
 344   0.0000      12.140522       330.3604 
 345   0.0000      12.141002       330.3735 
 346   0.0000      12.229364       332.7779 
 347   0.0000      12.229381       332.7784 
 348   0.0000      12.289601       334.4170 
 349   0.0000      12.298748       334.6659 
 350   0.0000      12.569261       342.0270 
 351   0.0000      12.569426       342.0315 
 352   0.0000      12.641178       343.9839 
 353   0.0000      12.690278       345.3200 
 354   0.0000      12.694098       345.4240 
 355   0.0000      13.066330       355.5529 
 356   0.0000      13.067387       355.5817 
 357   0.0000      13.158188       358.0525 
 358   0.0000      13.641576       371.2061 
 359   0.0000      13.713839       373.1725 
 360   0.0000      13.714057       373.1785 
 361   0.0000      13.837506       376.5377 
 362   0.0000      13.841068       376.6346 
 363   0.0000      14.193832       386.2338 
 364   0.0000      14.196536       386.3074 
 365   0.0000      14.271346       388.3431 
 366   0.0000      14.272538       388.3755 
 367   0.0000      14.390503       391.5855 
 368   0.0000      14.395216       391.7137 
 369   0.0000      14.486434       394.1959 
 370   0.0000      14.487999       394.2385 
 371   0.0000      14.664689       399.0465 
 372   0.0000      15.201884       413.6643 
 373   0.0000      15.207290       413.8114 
 374   0.0000      15.714020       427.6002 
 375   0.0000      15.727380       427.9638 
 376   0.0000      15.811911       430.2640 
 377   0.0000      16.190443       440.5644 
 378   0.0000      16.196730       440.7354 
 379   0.0000      16.259576       442.4456 
 380   0.0000      16.545977       450.2389 
 381   0.0000      16.547403       450.2777 
 382   0.0000      16.931919       460.7409 
 383   0.0000      16.934820       460.8199 
 384   0.0000      16.934827       460.8201 
 385   0.0000      16.937425       460.8908 
 386   0.0000      17.211633       468.3523 
 387   0.0000      17.211715       468.3546 
 388   0.0000      17.267536       469.8735 
 389   0.0000      17.480386       475.6655 
 390   0.0000      17.493379       476.0190 
 391   0.0000      17.676100       480.9911 
 392   0.0000      18.094603       492.3792 
 393   0.0000      18.095566       492.4054 
 394   0.0000      18.229318       496.0450 
 395   0.0000      18.239112       496.3115 
 396   0.0000      18.742887       510.0199 
 397   0.0000      18.787644       511.2378 
 398   0.0000      18.790516       511.3159 
 399   0.0000      19.473711       529.9066 
 400   0.0000      20.267523       551.5074 
 401   0.0000      20.267914       551.5180 
 402   0.0000      20.460375       556.7551 
 403   0.0000      22.922051       623.7407 
 404   0.0000      23.024738       626.5350 
 405   0.0000      23.026143       626.5732 
 406   0.0000      24.457307       665.5172 
 407   0.0000      24.465158       665.7308 
 408   0.0000      25.218925       686.2418 
 409   0.0000      26.303516       715.7551 
 410   0.0000      26.329348       716.4580 
 411   0.0000      26.764090       728.2879 
 412   0.0000      28.129692       765.4478 
 413   0.0000      30.500100       829.9499 
 414   0.0000      31.850231       866.6888 
 415   0.0000      31.850317       866.6912 
 416   0.0000      32.116347       873.9302 
 417   0.0000      32.123722       874.1309 
 418   0.0000      33.188500       903.1050 
 419   0.0000      33.188952       903.1173 
 420   0.0000      34.755452       945.7439 
 421   0.0000      36.248988       986.3851 
 422   0.0000      47.694621      1297.8366 
 423   0.0000      47.699523      1297.9700 
 424   0.0000      48.059792      1307.7734 
 425   0.0000      48.074543      1308.1748 
 426   0.0000      48.828714      1328.6969 
 427   0.0000      66.550596      1810.9338 
 428   0.0000      66.551462      1810.9574 
 429   0.0000      67.413438      1834.4129 
 430   0.0000      67.418362      1834.5469 
 431   0.0000      69.000079      1877.5876 
 432   0.0000      77.256311      2102.2511 
 433   0.0000     103.909326      2827.5165 
 434   0.0000     143.817299      3913.4677 

                    ********************************
                    * MULLIKEN POPULATION ANALYSIS *
                    ********************************

--------------------------------------------
MULLIKEN ATOMIC CHARGES AND SPIN POPULATIONS
--------------------------------------------
   0 N :   -0.062784    0.723205
   1 C :    0.102297   -0.058705
   2 O :   -0.039513    0.335501
Sum of atomic charges         :    0.0000000
Sum of atomic spin populations:    1.0000000

-----------------------------------------------------
MULLIKEN REDUCED ORBITAL CHARGES AND SPIN POPULATIONS
-----------------------------------------------------
CHARGE
  0 N s       :     3.747524  s :     3.747524
      pz      :     1.142055  p :     3.273449
      px      :     0.786897
      py      :     1.344497
      dz2     :     0.015104  d :     0.039580
      dxz     :     0.010857
      dyz     :     0.013364
      dx2y2   :     0.000255
      dxy     :     0.000000
      f0      :     0.000890  f :     0.001689
      f+1     :     0.000256
      f-1     :     0.000408
      f+2     :     0.000025
      f-2     :     0.000000
      f+3     :     0.000053
      f-3     :     0.000058
      g0      :     0.000206  g :     0.000392
      g+1     :     0.000110
      g-1     :     0.000072
      g+2     :     0.000001
      g-2     :     0.000000
      g+3     :     0.000001
      g-3     :     0.000002
      g+4     :     0.000000
      g-4     :     0.000000
      h0      :     0.000014  h :     0.000151
      h+1     :     0.000076
      h-1     :     0.000060
      h+2     :     0.000000
      h-2     :     0.000000
      h+3     :    -0.000000
      h-3     :     0.000000
      h+4     :     0.000000
      h-4     :     0.000000
      h+5     :     0.000000
      h-5     :     0.000000
  1 C s       :     3.171784  s :     3.171784
      pz      :     0.838266  p :     2.483087
      px      :     0.772670
      py      :     0.872151
      dz2     :     0.054831  d :     0.211951
      dxz     :     0.052816
      dyz     :     0.104282
      dx2y2   :     0.000023
      dxy     :     0.000000
      f0      :     0.007475  f :     0.027640
      f+1     :     0.010394
      f-1     :     0.009752
      f+2     :     0.000009
      f-2     :     0.000000
      f+3     :     0.000004
      f-3     :     0.000005
      g0      :     0.000842  g :     0.003069
      g+1     :     0.000755
      g-1     :     0.001482
      g+2     :     0.000000
      g-2     :     0.000000
      g+3     :    -0.000005
      g-3     :    -0.000006
      g+4     :    -0.000000
      g-4     :    -0.000000
      h0      :    -0.000022  h :     0.000172
      h+1     :     0.000104
      h-1     :     0.000088
      h+2     :    -0.000000
      h-2     :    -0.000000
      h+3     :     0.000001
      h-3     :     0.000001
      h+4     :    -0.000000
      h-4     :    -0.000000
      h+5     :    -0.000000
      h-5     :    -0.000000
  2 O s       :     3.756764  s :     3.756764
      pz      :     1.260532  p :     4.236691
      px      :     1.344917
      py      :     1.631242
      dz2     :     0.005414  d :     0.041291
      dxz     :     0.017731
      dyz     :     0.018112
      dx2y2   :     0.000034
      dxy     :     0.000000
      f0      :    -0.001562  f :     0.003493
      f+1     :     0.002096
      f-1     :     0.002943
      f+2     :     0.000004
      f-2     :     0.000000
      f+3     :     0.000006
      f-3     :     0.000006
      g0      :    -0.000429  g :     0.000881
      g+1     :     0.000537
      g-1     :     0.000773
      g+2     :     0.000000
      g-2     :     0.000000
      g+3     :    -0.000000
      g-3     :    -0.000000
      g+4     :     0.000000
      g-4     :     0.000000
      h0      :    -0.000038  h :     0.000394
      h+1     :     0.000181
      h-1     :     0.000251
      h+2     :     0.000000
      h-2     :     0.000000
      h+3     :    -0.000000
      h-3     :    -0.000000
      h+4     :    -0.000000
      h-4     :    -0.000000
      h+5     :     0.000000
      h-5     :     0.000000

SPIN
  0 N s       :     0.035766  s :     0.035766
      pz      :     0.009343  p :     0.682727
      px      :     0.652296
      py      :     0.021089
      dz2     :     0.001759  d :     0.005694
      dxz     :     0.003579
      dyz     :     0.000168
      dx2y2   :     0.000187
      dxy     :     0.000000
      f0      :    -0.000140  f :    -0.000700
      f+1     :    -0.000502
      f-1     :    -0.000179
      f+2     :     0.000022
      f-2     :     0.000000
      f+3     :     0.000049
      f-3     :     0.000051
      g0      :     0.000006  g :    -0.000225
      g+1     :    -0.000186
      g-1     :    -0.000049
      g+2     :     0.000000
      g-2     :     0.000000
      g+3     :     0.000002
      g-3     :     0.000002
      g+4     :    -0.000000
      g-4     :    -0.000000
      h0      :    -0.000001  h :    -0.000058
      h+1     :    -0.000043
      h-1     :    -0.000015
      h+2     :    -0.000000
      h-2     :    -0.000000
      h+3     :     0.000000
      h-3     :     0.000000
      h+4     :    -0.000000
      h-4     :    -0.000000
      h+5     :    -0.000000
      h-5     :    -0.000000
  1 C s       :    -0.057390  s :    -0.057390
      pz      :    -0.022446  p :    -0.039667
      px      :     0.006654
      py      :    -0.023876
      dz2     :    -0.003925  d :     0.037689
      dxz     :     0.043488
      dyz     :    -0.001870
      dx2y2   :    -0.000005
      dxy     :    -0.000000
      f0      :    -0.000549  f :     0.000296
      f+1     :     0.000628
      f-1     :     0.000206
      f+2     :     0.000005
      f-2     :     0.000000
      f+3     :     0.000003
      f-3     :     0.000003
      g0      :    -0.000029  g :     0.000412
      g+1     :     0.000536
      g-1     :    -0.000087
      g+2     :     0.000000
      g-2     :     0.000000
      g+3     :    -0.000004
      g-3     :    -0.000005
      g+4     :     0.000000
      g-4     :     0.000000
      h0      :    -0.000015  h :    -0.000045
      h+1     :    -0.000028
      h-1     :    -0.000004
      h+2     :    -0.000001
      h-2     :    -0.000000
      h+3     :     0.000001
      h-3     :     0.000001
      h+4     :     0.000000
      h-4     :     0.000000
      h+5     :     0.000000
      h-5     :     0.000000
  2 O s       :     0.027688  s :     0.027688
      pz      :     0.007459  p :     0.304557
      px      :     0.292477
      py      :     0.004621
      dz2     :     0.001420  d :     0.000468
      dxz     :    -0.001147
      dyz     :     0.000162
      dx2y2   :     0.000033
      dxy     :     0.000000
      f0      :     0.000586  f :     0.001598
      f+1     :     0.000911
      f-1     :     0.000089
      f+2     :     0.000005
      f-2     :     0.000000
      f+3     :     0.000004
      f-3     :     0.000004
      g0      :     0.000187  g :     0.000914
      g+1     :     0.000626
      g-1     :     0.000103
      g+2     :    -0.000001
      g-2     :    -0.000000
      g+3     :    -0.000001
      g-3     :    -0.000001
      g+4     :    -0.000000
      g-4     :    -0.000000
      h0      :     0.000034  h :     0.000275
      h+1     :     0.000199
      h-1     :     0.000042
      h+2     :    -0.000000
      h-2     :    -0.000000
      h+3     :    -0.000000
      h-3     :    -0.000000
      h+4     :     0.000000
      h-4     :     0.000000
      h+5     :    -0.000000
      h-5     :    -0.000000


                     *******************************
                     * LOEWDIN POPULATION ANALYSIS *
                     *******************************

-------------------------------------------
LOEWDIN ATOMIC CHARGES AND SPIN POPULATIONS
-------------------------------------------
   0 N :    0.192145    0.529099
   1 C :   -0.482495    0.198018
   2 O :    0.290350    0.272884

----------------------------------------------------
LOEWDIN REDUCED ORBITAL CHARGES AND SPIN POPULATIONS
----------------------------------------------------
CHARGE
  0 N s       :     3.103847  s :     3.103847
      pz      :     1.357724  p :     3.099765
      px      :     0.653759
      py      :     1.088282
      dz2     :     0.125041  d :     0.256987
      dxz     :     0.064817
      dyz     :     0.066898
      dx2y2   :     0.000231
      dxy     :     0.000000
      f0      :     0.059868  f :     0.152934
      f+1     :     0.044988
      f-1     :     0.047963
      f+2     :     0.000027
      f-2     :     0.000000
      f+3     :     0.000042
      f-3     :     0.000046
      g0      :     0.044347  g :     0.113251
      g+1     :     0.032814
      g-1     :     0.036087
      g+2     :     0.000002
      g-2     :     0.000000
      g+3     :     0.000001
      g-3     :     0.000001
      g+4     :     0.000000
      g-4     :     0.000000
      h0      :     0.029325  h :     0.081071
      h+1     :     0.023778
      h-1     :     0.027967
      h+2     :     0.000000
      h-2     :     0.000000
      h+3     :     0.000000
      h-3     :     0.000000
      h+4     :     0.000000
      h-4     :     0.000000
      h+5     :     0.000000
      h-5     :     0.000000
  1 C s       :     2.639693  s :     2.639693
      pz      :     1.170772  p :     2.475691
      px      :     0.618869
      py      :     0.686050
      dz2     :     0.393970  d :     1.000037
      dxz     :     0.212269
      dyz     :     0.393777
      dx2y2   :     0.000020
      dxy     :     0.000000
      f0      :     0.117448  f :     0.258934
      f+1     :     0.070988
      f-1     :     0.070468
      f+2     :     0.000018
      f-2     :     0.000000
      f+3     :     0.000005
      f-3     :     0.000006
      g0      :     0.021210  g :     0.093742
      g+1     :     0.026837
      g-1     :     0.045684
      g+2     :     0.000007
      g-2     :     0.000000
      g+3     :     0.000002
      g-3     :     0.000002
      g+4     :     0.000000
      g-4     :     0.000000
      h0      :     0.006154  h :     0.014398
      h+1     :     0.004063
      h-1     :     0.004177
      h+2     :     0.000002
      h-2     :     0.000000
      h+3     :     0.000001
      h-3     :     0.000001
      h+4     :     0.000000
      h-4     :     0.000000
      h+5     :     0.000000
      h-5     :     0.000000
  2 O s       :     3.155022  s :     3.155022
      pz      :     1.506325  p :     3.910503
      px      :     1.097317
      py      :     1.306861
      dz2     :     0.128691  d :     0.286869
      dxz     :     0.064746
      dyz     :     0.093400
      dx2y2   :     0.000032
      dxy     :     0.000000
      f0      :     0.069668  f :     0.175943
      f+1     :     0.042976
      f-1     :     0.063279
      f+2     :     0.000005
      f-2     :     0.000000
      f+3     :     0.000007
      f-3     :     0.000007
      g0      :     0.045339  g :     0.112110
      g+1     :     0.025764
      g-1     :     0.041002
      g+2     :     0.000002
      g-2     :     0.000000
      g+3     :     0.000001
      g-3     :     0.000001
      g+4     :     0.000000
      g-4     :     0.000000
      h0      :     0.025204  h :     0.069203
      h+1     :     0.016413
      h-1     :     0.027581
      h+2     :     0.000003
      h-2     :     0.000000
      h+3     :     0.000001
      h-3     :     0.000001
      h+4     :     0.000000
      h-4     :     0.000000
      h+5     :     0.000000
      h-5     :     0.000000

SPIN
  0 N s       :     0.005207  s :     0.005207
      pz      :     0.000061  p :     0.524374
      px      :     0.507467
      py      :     0.016846
      dz2     :     0.000101  d :    -0.003918
      dxz     :    -0.002887
      dyz     :    -0.001284
      dx2y2   :     0.000153
      dxy     :     0.000000
      f0      :    -0.000536  f :    -0.002124
      f+1     :    -0.000718
      f-1     :    -0.000971
      f+2     :     0.000023
      f-2     :     0.000000
      f+3     :     0.000039
      f-3     :     0.000039
      g0      :    -0.000047  g :     0.001803
      g+1     :     0.002102
      g-1     :    -0.000254
      g+2     :     0.000001
      g-2     :     0.000000
      g+3     :     0.000001
      g-3     :     0.000001
      g+4     :    -0.000000
      g-4     :    -0.000000
      h0      :     0.000042  h :     0.003756
      h+1     :     0.003788
      h-1     :    -0.000074
      h+2     :     0.000000
      h-2     :     0.000000
      h+3     :     0.000000
      h-3     :     0.000000
      h+4     :    -0.000000
      h-4     :    -0.000000
      h+5     :    -0.000000
      h-5     :    -0.000000
  1 C s       :    -0.004785  s :    -0.004785
      pz      :    -0.005416  p :    -0.002668
      px      :     0.015177
      py      :    -0.012429
      dz2     :     0.002027  d :     0.172653
      dxz     :     0.172120
      dyz     :    -0.001507
      dx2y2   :     0.000013
      dxy     :     0.000000
      f0      :     0.000946  f :     0.011872
      f+1     :     0.008781
      f-1     :     0.002122
      f+2     :     0.000013
      f-2     :     0.000000
      f+3     :     0.000004
      f-3     :     0.000005
      g0      :    -0.000013  g :     0.020509
      g+1     :     0.020238
      g-1     :     0.000276
      g+2     :     0.000005
      g-2     :     0.000000
      g+3     :     0.000001
      g-3     :     0.000001
      g+4     :    -0.000000
      g-4     :    -0.000000
      h0      :    -0.000076  h :     0.000437
      h+1     :     0.000443
      h-1     :     0.000067
      h+2     :     0.000002
      h-2     :     0.000000
      h+3     :     0.000001
      h-3     :     0.000001
      h+4     :    -0.000000
      h-4     :    -0.000000
      h+5     :    -0.000000
      h-5     :    -0.000000
  2 O s       :     0.001655  s :     0.001655
      pz      :     0.000824  p :     0.216798
      px      :     0.214618
      py      :     0.001355
      dz2     :    -0.000779  d :     0.010825
      dxz     :     0.014716
      dyz     :    -0.003141
      dx2y2   :     0.000029
      dxy     :     0.000000
      f0      :    -0.000062  f :     0.013962
      f+1     :     0.015128
      f-1     :    -0.001122
      f+2     :     0.000004
      f-2     :     0.000000
      f+3     :     0.000007
      f-3     :     0.000007
      g0      :     0.000315  g :     0.016140
      g+1     :     0.015678
      g-1     :     0.000145
      g+2     :     0.000001
      g-2     :     0.000000
      g+3     :     0.000001
      g-3     :     0.000001
      g+4     :    -0.000000
      g-4     :    -0.000000
      h0      :     0.000290  h :     0.013505
      h+1     :     0.012838
      h-1     :     0.000372
      h+2     :     0.000002
      h-2     :     0.000000
      h+3     :     0.000001
      h-3     :     0.000001
      h+4     :    -0.000000
      h-4     :    -0.000000
      h+5     :    -0.000000
      h-5     :    -0.000000


                      *****************************
                      * MAYER POPULATION ANALYSIS *
                      *****************************

  NA   - Mulliken gross atomic population
  ZA   - Total nuclear charge
  QA   - Mulliken gross atomic charge
  VA   - Mayer's total valence
  BVA  - Mayer's bonded valence
  FA   - Mayer's free valence

  ATOM       NA         ZA         QA         VA         BVA        FA
  0 N      7.0628     7.0000    -0.0628     2.7892     2.3499     0.4394
  1 C      5.8977     6.0000     0.1023     4.1703     4.1533     0.0170
  2 O      8.0395     8.0000    -0.0395     2.3212     2.2378     0.0834

  Mayer bond orders larger than 0.1
B(  0-N ,  1-C ) :   2.1326 B(  0-N ,  2-O ) :   0.2172 B(  1-C ,  2-O ) :   2.0206 


-------
TIMINGS
-------

Total SCF time: 0 days 1 hours 45 min 12 sec 

Total time                  ....    6312.851 sec
Sum of individual times     ....    6311.993 sec  (100.0%)

Fock matrix formation       ....    6300.117 sec  ( 99.8%)
  XC integration            ....     175.055 sec  (  2.8% of F)
    Basis function eval.    ....      11.442 sec  (  6.5% of XC)
    Density eval.           ....      40.809 sec  ( 23.3% of XC)
    XC-Functional eval.     ....       1.205 sec  (  0.7% of XC)
    XC-Potential eval.      ....     120.648 sec  ( 68.9% of XC)
Diagonalization             ....       2.034 sec  (  0.0%)
Density matrix formation    ....       0.041 sec  (  0.0%)
Population analysis         ....       0.193 sec  (  0.0%)
Initial guess               ....       6.043 sec  (  0.1%)
Orbital Transformation      ....       0.000 sec  (  0.0%)
Orbital Orthonormalization  ....       0.000 sec  (  0.0%)
DIIS solution               ....       0.954 sec  (  0.0%)
Grid generation             ....       2.611 sec  (  0.0%)

-------------------------   --------------------
FINAL SINGLE POINT ENERGY      -167.906363671606
-------------------------   --------------------


                            ***************************************
                            *     ORCA property calculations      *
                            ***************************************

                                    ---------------------
                                    Active property flags
                                    ---------------------
   (+) Dipole Moment
   (+) Polarizability


------------------------------------------------------------------------------
                       ORCA ELECTRIC PROPERTIES CALCULATION
------------------------------------------------------------------------------

Dipole Moment Calculation                       ... on
Quadrupole Moment Calculation                   ... off
Polarizability Calculation                      ... Analytic (CP-SCF)
GBWName                                         ... nco_pbe.gbw
Electron density file                           ... nco_pbe.scfp.tmp
The origin for moment calculation is the CENTER OF MASS  = ( 0.000000, -0.000000 -0.003065)

-------------
DIPOLE MOMENT
-------------
                                X             Y             Z
Electronic contribution:     -0.00000       0.00000       0.32935
Nuclear contribution   :      0.00000      -0.00000       0.00975
                        -----------------------------------------
Total Dipole Moment    :     -0.00000       0.00000       0.33910
                        -----------------------------------------
Magnitude (a.u.)       :      0.33910
Magnitude (Debye)      :      0.86191



--------------------
Rotational spectrum 
--------------------
 
Rotational constants in cm-1:     0.000000     0.390178     0.390178 
Rotational constants in MHz :     0.000000 11697.239848 11697.239848 

 Dipole components along the rotational axes: 
x,y,z [a.u.] :     0.339095     0.000001     0.000000 
x,y,z [Debye]:     0.861912     0.000002     0.000000 

 
Transforming and storing MO dipole integrals   ... done

                ... starting polarizability calculation

Opening the Dipole integral file               ... (nco_pbe.dmo.tmp) done
Reading Dipole-MO integrals                    ... done
Solving CP-SCF equations                       ... 
------------------------------------------------------------------------------
                           ORCA CP-SCF CALCULATION
------------------------------------------------------------------------------

Input orbitals are from        ... nco_pbe.gbw
Input Perturbation             ... nco_pbe.cpv.tmp
Wavefunction output            ... nco_pbe.cpu.tmp
Perturbation mode              ... Real perturbation (singlet)
Solver                         ... POPLE
Max. number of iterations      ... 200
Convergence tolerance          ... 1.000e-06
Integral handling              ... Direct
Number of perturbations        ... 3
Number of operators            ... 2
Orbital ranges used for CP-SCF:
 Operator 0:  Orbitals   0... 10  to  11...434
 Operator 1:  Orbitals   0...  9  to  10...434
DFT calculation                         ... on
Exchange functional (SCF)               ... PBE
Exchange functional (CP-SCF)            ... PBE
   PBE kappa parameter  XKappa (SCF)    ...  0.804000
   PBE kappa parameter  XKappa (CP-SCF) ...  0.804000
   PBE mue parameter   XMuePBE (SCF)    ...  0.219520
   PBE mue parameter   XMuePBE (CP-SCF) ...  0.219520
Correlation functional (SCF)            ... PBE
Correlation functional (CP-SCF)         ... PBE
   PBE beta parameter CBetaPBE (SCF)    ...  0.066725
   PBE beta parameter CBetaPBE (CP-SCF) ...  0.066725
 LDA part of GGA corr.  LDAOpt (SCF)    ... PW91-LDA
 LDA part of GGA corr.  LDAOpt (CP-SCF) ... PW91-LDA
Variables per vector in CP-SCF ... 8914
Number of vectors sought       ... 3
Recalculating density on grid  ... done
Calculating the xc-kernel      ... done
     CP-SCF ITERATION   0: 
     CP-SCF ITERATION   1:      0.507744333230
     CP-SCF ITERATION   2:      0.069498252116
     CP-SCF ITERATION   3:      0.004065792658
     CP-SCF ITERATION   4:      0.000487855214
     CP-SCF ITERATION   5:      0.000007381987
     CP-SCF ITERATION   6:      0.000000849532
done
Reading CP-SCF coefficients                    ... done
Doing the polarizability tensor   ... done
Cleaning up                                    ... done

-------------------------
THE POLARIZABILITY TENSOR
-------------------------

The raw cartesian tensor (atomic units):
   15.87761     -0.00643     -0.00043  
   -0.00643     16.16944      0.00001  
   -0.00043      0.00001     33.11875  
diagonalized tensor: 
   15.87747     16.16958     33.11875  

   -0.99976     -0.02202     -0.00002  
   -0.02202      0.99976      0.00000  
   -0.00002     -0.00000      1.00000  

Isotropic polarizability :  21.72193


Timings for individual modules:

Sum of individual times         ...    10521.246 sec (= 175.354 min)
GTO integral calculation        ...        1.807 sec (=   0.030 min)   0.0 %
SCF iterations                  ...     6312.943 sec (= 105.216 min)  60.0 %
Solution of CP-SCF eqns.        ...     4206.496 sec (=  70.108 min)  40.0 %
                             ****ORCA TERMINATED NORMALLY****
TOTAL RUN TIME: 0 days 2 hours 55 minutes 21 seconds 755 msec
