
                                 *****************
                                 * O   R   C   A *
                                 *****************

           --- An Ab Initio, DFT and Semiempirical electronic structure package ---

                  #######################################################
                  #                        -***-                        #
                  #          Department of theory and spectroscopy      #
                  #               Directorship: Frank Neese             #
                  #        Max Planck Institute fuer Kohlenforschung    #
                  #                Kaiser Wilhelm Platz 1               #
                  #                 D-45470 Muelheim/Ruhr               #
                  #                      Germany                        #
                  #                                                     #
                  #                  All rights reserved                #
                  #                        -***-                        #
                  #######################################################


                         Program Version 4.1.2  - RELEASE  -


 With contributions from (in alphabetic order):
   Daniel Aravena         : Magnetic Properties
   Michael Atanasov       : Ab Initio Ligand Field Theory
   Alexander A. Auer      : GIAO ZORA
   Ute Becker             : Parallelization
   Giovanni Bistoni       : ED, Open-shell LED
   Martin Brehm           : Molecular dynamics
   Dmytro Bykov           : SCF Hessian
   Vijay G. Chilkuri      : MRCI spin determinant printing
   Dipayan Datta          : RHF DLPNO-CCSD density
   Achintya Kumar Dutta   : EOM-CC, STEOM-CC
   Dmitry Ganyushin       : Spin-Orbit,Spin-Spin,Magnetic field MRCI
   Miquel Garcia          : C-PCM Hessian
   Yang Guo               : DLPNO-NEVPT2, CIM, IAO-localization
   Andreas Hansen         : Spin unrestricted coupled pair/coupled cluster methods
   Benjamin Helmich-Paris : CASSCF linear response (MC-RPA)
   Lee Huntington         : MR-EOM, pCC
   Robert Izsak           : Overlap fitted RIJCOSX, COSX-SCS-MP3, EOM
   Christian Kollmar      : KDIIS, OOCD, Brueckner-CCSD(T), CCSD density
   Simone Kossmann        : Meta GGA functionals, TD-DFT gradient, OOMP2, MP2 Hessian
   Martin Krupicka        : AUTO-CI
   Lucas Lang             : DCDCAS
   Dagmar Lenk            : GEPOL surface, SMD
   Dimitrios Liakos       : Extrapolation schemes; parallel MDCI
   Dimitrios Manganas     : ROCIS; embedding schemes
   Dimitrios Pantazis     : SARC Basis sets
   Taras Petrenko         : DFT Hessian,TD-DFT gradient, ASA, ECA, R-Raman, ABS, FL, XAS/XES, NRVS
   Peter Pinski           : DLPNO-MP2, DLPNO-MP2 Gradient
   Christoph Reimann      : Effective Core Potentials
   Marius Retegan         : Local ZFS, SOC
   Christoph Riplinger    : Optimizer, TS searches, QM/MM, DLPNO-CCSD(T), (RO)-DLPNO pert. Triples
   Tobias Risthaus        : Range-separated hybrids, TD-DFT gradient, RPA, STAB
   Michael Roemelt        : Restricted open shell CIS
   Masaaki Saitow         : Open-shell DLPNO
   Barbara Sandhoefer     : DKH picture change effects
   Avijit Sen             : IP-ROCIS
   Kantharuban Sivalingam : CASSCF convergence, NEVPT2, FIC-MRCI
   Bernardo de Souza      : ESD, SOC TD-DFT
   Georgi Stoychev        : AutoAux, RI-MP2 NMR
   Willem Van den Heuvel  : Paramagnetic NMR
   Boris Wezisla          : Elementary symmetry handling
   Frank Wennmohs         : Technical directorship


 We gratefully acknowledge several colleagues who have allowed us to
 interface, adapt or use parts of their codes:
   Stefan Grimme, W. Hujo, H. Kruse,             : VdW corrections, initial TS optimization,
                  C. Bannwarth                     DFT functionals, gCP, sTDA/sTD-DF
   Ed Valeev                                     : LibInt (2-el integral package), F12 methods
   Garnet Chan, S. Sharma, J. Yang, R. Olivares  : DMRG
   Ulf Ekstrom                                   : XCFun DFT Library
   Mihaly Kallay                                 : mrcc  (arbitrary order and MRCC methods)
   Andreas Klamt, Michael Diedenhofen            : otool_cosmo (COSMO solvation model)
   Jiri Pittner, Ondrej Demel                    : Mk-CCSD
   Frank Weinhold                                : gennbo (NPA and NBO analysis)
   Christopher J. Cramer and Donald G. Truhlar   : smd solvation model
   Lars Goerigk                                  : TD-DFT with DH, B97 family of functionals
   V. Asgeirsson, H. Jonsson                     : NEB implementation
   FAccTs GmbH                                   : IRC, NEB, NEB-TS, Multilevel


 Your calculation uses the libint2 library for the computation of 2-el integrals
 For citations please refer to: http://libint.valeyev.net

 This ORCA versions uses:
   CBLAS   interface :  Fast vector & matrix operations
   LAPACKE interface :  Fast linear algebra routines
   SCALAPACK package :  Parallel linear algebra routines


----- Orbital basis set information -----
Your calculation utilizes the basis: aug-pc-4
   H, C-F              : F. Jensen, J. Chem. Phys. 115, 9113 (2001).
                         F. Jensen, J. Chem. Phys. 116, 7372 (2002).
                         F. Jensen, J. Chem. Phys. 117, 9234 (2002).
   Si-Cl               : F. Jensen, T. Helgaker, J. Chem. Phys. 121, 3463 (2004).
   He-B, Ne-Mg, Al, Ar : F. Jensen, J. Phys. Chem. A 111, 11198 (2007).
   K, Ca, Ga-Kr        : F. Jensen, J. Chem. Phys. 136, 094110 (2012).
   Sc-Zn               : F. Jensen, J. Chem. Phys. 138, 014107 (2013).

================================================================================
                                        WARNINGS
                       Please study these warnings very carefully!
================================================================================


INFO   : the flag for use of LIBINT has been found!

================================================================================
                                       INPUT FILE
================================================================================
NAME = nh2_pbe.inp
|  1> !uks pbe nori aug-pc-4 grid7 nofinalgrid verytightscf
|  2> 
|  3> %maxcore 1500
|  4> 
|  5> %pal nprocs 1 end
|  6> 
|  7> %scf
|  8> 	maxiter 200
|  9> end
| 10> %elprop
| 11> 	dipole true
| 12> 	 polar 1
| 13> 	 maxiter 200
| 14> end
| 15> 
| 16> * xyz 0 2
| 17> N 0.0000 0.0000 0.0000
| 18> H 0.0000 0.8036 0.6347
| 19> H 0.0000 -0.8036 0.6347
| 20> *
| 21> 
| 22>                          ****END OF INPUT****
================================================================================

                       ****************************
                       * Single Point Calculation *
                       ****************************

---------------------------------
CARTESIAN COORDINATES (ANGSTROEM)
---------------------------------
  N      0.000000    0.000000    0.000000
  H      0.000000    0.803600    0.634700
  H      0.000000   -0.803600    0.634700

----------------------------
CARTESIAN COORDINATES (A.U.)
----------------------------
  NO LB      ZA    FRAG     MASS         X           Y           Z
   0 N     7.0000    0    14.007    0.000000    0.000000    0.000000
   1 H     1.0000    0     1.008    0.000000    1.518584    1.199409
   2 H     1.0000    0     1.008    0.000000   -1.518584    1.199409

--------------------------------
INTERNAL COORDINATES (ANGSTROEM)
--------------------------------
 N      0   0   0     0.000000000000     0.00000000     0.00000000
 H      1   0   0     1.024020043749     0.00000000     0.00000000
 H      1   2   0     1.024020043749   103.39517332     0.00000000

---------------------------
INTERNAL COORDINATES (A.U.)
---------------------------
 N      0   0   0     0.000000000000     0.00000000     0.00000000
 H      1   0   0     1.935117438332     0.00000000     0.00000000
 H      1   2   0     1.935117438332   103.39517332     0.00000000

---------------------
BASIS SET INFORMATION
---------------------
There are 2 groups of distinct atoms

 Group   1 Type N   : 27s12p7d4f3g2h contracted to 9s8p7d4f3g2h pattern {1191111111/51111111/1111111/1111/111/11}
 Group   2 Type H   : 12s7p4d3f2g contracted to 8s7p4d3f2g pattern {51111111/1111111/1111/111/11}

Atom   0N    basis set group =>   1
Atom   1H    basis set group =>   2
Atom   2H    basis set group =>   2
------------------------------------------------------------------------------
                           ORCA GTO INTEGRAL CALCULATION
------------------------------------------------------------------------------

                         BASIS SET STATISTICS AND STARTUP INFO

 # of primitive gaussian shells          ...  111
 # of primitive gaussian functions       ...  359
 # of contracted shells                  ...   81
 # of contracted basis functions         ...  321
 Highest angular momentum                ...    5
 Maximum contraction depth               ...   11
 Integral package used                   ... LIBINT
 Integral threshhold            Thresh   ...  1.000e-12
 Primitive cut-off              TCut     ...  1.000e-14


------------------------------ INTEGRAL EVALUATION ----------------------------


 * One electron integrals 
 Pre-screening matrix                    ... done
 Shell pair data                         ... done (   0.001 sec)

-------------------------------------------------------------------------------
                                 ORCA SCF
-------------------------------------------------------------------------------

------------
SCF SETTINGS
------------
Hamiltonian:
 Density Functional     Method          .... DFT(GTOs)
 Exchange Functional    Exchange        .... PBE
   PBE kappa parameter   XKappa         ....  0.804000
   PBE mue parameter    XMuePBE         ....  0.219520
 Correlation Functional Correlation     .... PBE
   PBE beta parameter  CBetaPBE         ....  0.066725
 LDA part of GGA corr.  LDAOpt          .... PW91-LDA
 Gradients option       PostSCFGGA      .... off
   Density functional embedding theory  .... OFF
   NL short-range parameter             ....  6.400000


General Settings:
 Integral files         IntName         .... nh2_pbe
 Hartree-Fock type      HFTyp           .... UHF
 Total Charge           Charge          ....    0
 Multiplicity           Mult            ....    2
 Number of Electrons    NEL             ....    9
 Basis Dimension        Dim             ....  321
 Nuclear Repulsion      ENuc            ....      7.5639571445 Eh

Convergence Acceleration:
 DIIS                   CNVDIIS         .... on
   Start iteration      DIISMaxIt       ....    12
   Startup error        DIISStart       ....  0.200000
   # of expansion vecs  DIISMaxEq       ....     5
   Bias factor          DIISBfac        ....   1.050
   Max. coefficient     DIISMaxC        ....  10.000
 Newton-Raphson         CNVNR           .... off
 SOSCF                  CNVSOSCF        .... off
 Level Shifting         CNVShift        .... on
   Level shift para.    LevelShift      ....    0.2500
   Turn off err/grad.   ShiftErr        ....    0.0010
 Zerner damping         CNVZerner       .... off
 Static damping         CNVDamp         .... on
   Fraction old density DampFac         ....    0.7000
   Max. Damping (<1)    DampMax         ....    0.9800
   Min. Damping (>=0)   DampMin         ....    0.0000
   Turn off err/grad.   DampErr         ....    0.1000
 Fernandez-Rico         CNVRico         .... off

SCF Procedure:
 Maximum # iterations   MaxIter         ....   200
 SCF integral mode      SCFMode         .... Direct
   Integral package                     .... LIBINT
 Reset frequency        DirectResetFreq ....    20
 Integral Threshold     Thresh          ....  1.000e-12 Eh
 Primitive CutOff       TCut            ....  1.000e-14 Eh

Convergence Tolerance:
 Convergence Check Mode ConvCheckMode   .... Total+1el-Energy
 Convergence forced     ConvForced      .... 0
 Energy Change          TolE            ....  1.000e-09 Eh
 1-El. energy change                    ....  1.000e-06 Eh
 DIIS Error             TolErr          ....  1.000e-08


Diagonalization of the overlap matrix:
Smallest eigenvalue                        ... 2.583e-06
Time for diagonalization                   ...    0.019 sec
Threshold for overlap eigenvalues          ... 1.000e-08
Number of eigenvalues below threshold      ... 0
Time for construction of square roots      ...    0.014 sec
Total time needed                          ...    0.033 sec

-------------------
DFT GRID GENERATION
-------------------

General Integration Accuracy     IntAcc      ...  5.670
Radial Grid Type                 RadialGrid  ... Gauss-Chebyshev
Angular Grid (max. acc.)         AngularGrid ... Lebedev-770
Angular grid pruning method      GridPruning ... 3 (G Style)
Weight generation scheme         WeightScheme... Becke
Basis function cutoff            BFCut       ...    1.0000e-12
Integration weight cutoff        WCut        ...    1.0000e-14
Grids for H and He will be reduced by one unit

# of grid points (after initial pruning)     ...  60706 (   0.0 sec)
# of grid points (after weights+screening)   ...  60182 (   0.0 sec)
nearest neighbour list constructed           ...    0.0 sec
Grid point re-assignment to atoms done       ...    0.0 sec
Grid point division into batches done        ...    1.0 sec
Reduced shell lists constructed in    1.6 sec

Total number of grid points                  ...    60182
Total number of batches                      ...      942
Average number of points per batch           ...       63
Average number of grid points per atom       ...    20061
Average number of shells per batch           ...    64.03 (79.04%)
Average number of basis functions per batch  ...   260.28 (81.08%)
Average number of large shells per batch     ...    58.45 (91.29%)
Average number of large basis fcns per batch ...   238.52 (91.64%)
Maximum spatial batch extension              ...  13.79, 14.78, 13.13 au
Average spatial batch extension              ...   2.11,  1.95,  2.04 au

Time for grid setup =    1.673 sec

------------------------------
INITIAL GUESS: MODEL POTENTIAL
------------------------------
Loading Hartree-Fock densities                     ... done
Calculating cut-offs                               ... done
Setting up the integral package                    ... done
Initializing the effective Hamiltonian             ... done
Starting the Coulomb interaction                   ... done (   0.0 sec)
Reading the grid                                   ... done
Mapping shells                                     ... done
Starting the XC term evaluation                    ... done (   3.1 sec)
  promolecular density results
     # of electrons  =      8.999020742
     EX              =     -7.048178501
     EC              =     -0.268812791
     EX+EC           =     -7.316991292
Transforming the Hamiltonian                       ... done (   0.0 sec)
Diagonalizing the Hamiltonian                      ... done (   0.0 sec)
Back transforming the eigenvectors                 ... done (   0.0 sec)
Now organizing SCF variables                       ... done
                      ------------------
                      INITIAL GUESS DONE (   4.9 sec)
                      ------------------
--------------
SCF ITERATIONS
--------------
ITER       Energy         Delta-E        Max-DP      RMS-DP      [F,P]     Damp
               ***  Starting incremental Fock matrix formation  ***
  0    -55.7937603424   0.000000000000 0.01512653  0.00014033  0.1953344 0.7000
  1    -55.8151901213  -0.021429778911 0.01340076  0.00010891  0.0862300 0.7000
                               ***Turning on DIIS***
  2    -55.8220493563  -0.006859235039 0.02205370  0.00017063  0.0187379 0.0000
  3    -55.8330592551  -0.011009898759 0.00830620  0.00006599  0.0556482 0.0000
  4    -55.8363187980  -0.003259542893 0.00290609  0.00002291  0.0118158 0.0000
  5    -55.8365310460  -0.000212248029 0.00052689  0.00000571  0.0024775 0.0000
  6    -55.8365489097  -0.000017863664 0.00032696  0.00000443  0.0007393 0.0000
  7    -55.8365518756  -0.000002965967 0.00010022  0.00000076  0.0001145 0.0000
  8    -55.8365519149  -0.000000039232 0.00001295  0.00000009  0.0000237 0.0000
  9    -55.8365519178  -0.000000002873 0.00000353  0.00000003  0.0000044 0.0000
 10    -55.8365519182  -0.000000000405 0.00000218  0.00000002  0.0000008 0.0000
                 **** Energy Check signals convergence ****

               *****************************************************
               *                     SUCCESS                       *
               *           SCF CONVERGED AFTER  11 CYCLES          *
               *****************************************************


----------------
TOTAL SCF ENERGY
----------------

Total Energy       :          -55.83655192 Eh           -1519.38982 eV

Components:
Nuclear Repulsion  :            7.56395714 Eh             205.82574 eV
Electronic Energy  :          -63.40050906 Eh           -1725.21556 eV
One Electron Energy:          -90.20838597 Eh           -2454.69498 eV
Two Electron Energy:           26.80787690 Eh             729.47942 eV

Virial components:
Potential Energy   :         -111.48446311 Eh           -3033.64647 eV
Kinetic Energy     :           55.64791119 Eh            1514.25665 eV
Virial Ratio       :            2.00338990


DFT components:
N(Alpha)           :        4.999999973665 electrons
N(Beta)            :        3.999999973638 electrons
N(Total)           :        8.999999947303 electrons
E(X)               :       -7.246848963528 Eh       
E(C)               :       -0.269792990822 Eh       
E(XC)              :       -7.516641954350 Eh       
DFET-embed. en.    :        0.000000000000 Eh       

---------------
SCF CONVERGENCE
---------------

  Last Energy change         ...   -7.4607e-11  Tolerance :   1.0000e-09
  Last MAX-Density change    ...    2.4984e-06  Tolerance :   1.0000e-08
  Last RMS-Density change    ...    2.9319e-08  Tolerance :   1.0000e-09
  Last DIIS Error            ...    1.6543e-07  Tolerance :   1.0000e-08

             **** THE GBW FILE WAS UPDATED (nh2_pbe.gbw) ****
             **** DENSITY FILE WAS UPDATED (nh2_pbe.scfp.tmp) ****
             **** ENERGY FILE WAS UPDATED (nh2_pbe.en.tmp) ****
----------------------
UHF SPIN CONTAMINATION
----------------------

Warning: in a DFT calculation there is little theoretical justification to 
         calculate <S**2> as in Hartree-Fock theory. We will do it anyways
         but you should keep in mind that the values have only limited relevance

Expectation value of <S**2>     :     0.753009
Ideal value S*(S+1) for S=0.5   :     0.750000
Deviation                       :     0.003009

----------------
ORBITAL ENERGIES
----------------
                 SPIN UP ORBITALS
  NO   OCC          E(Eh)            E(eV) 
   0   1.0000     -14.019382      -381.4868 
   1   1.0000      -0.782600       -21.2956 
   2   1.0000      -0.429674       -11.6920 
   3   1.0000      -0.286211        -7.7882 
   4   1.0000      -0.275495        -7.4966 
   5   0.0000      -0.028314        -0.7705 
   6   0.0000       0.012704         0.3457 
   7   0.0000       0.024880         0.6770 
   8   0.0000       0.027212         0.7405 
   9   0.0000       0.041237         1.1221 
  10   0.0000       0.053553         1.4573 
  11   0.0000       0.059380         1.6158 
  12   0.0000       0.074547         2.0285 
  13   0.0000       0.078786         2.1439 
  14   0.0000       0.081530         2.2186 
  15   0.0000       0.083283         2.2663 
  16   0.0000       0.124193         3.3795 
  17   0.0000       0.126958         3.4547 
  18   0.0000       0.131193         3.5700 
  19   0.0000       0.133601         3.6355 
  20   0.0000       0.155407         4.2288 
  21   0.0000       0.164758         4.4833 
  22   0.0000       0.174946         4.7605 
  23   0.0000       0.175300         4.7701 
  24   0.0000       0.177793         4.8380 
  25   0.0000       0.187202         5.0940 
  26   0.0000       0.189110         5.1459 
  27   0.0000       0.192499         5.2382 
  28   0.0000       0.211421         5.7530 
  29   0.0000       0.212509         5.7827 
  30   0.0000       0.223287         6.0759 
  31   0.0000       0.224596         6.1116 
  32   0.0000       0.235931         6.4200 
  33   0.0000       0.240487         6.5440 
  34   0.0000       0.254024         6.9123 
  35   0.0000       0.272846         7.4245 
  36   0.0000       0.282969         7.7000 
  37   0.0000       0.316973         8.6253 
  38   0.0000       0.318292         8.6612 
  39   0.0000       0.320794         8.7292 
  40   0.0000       0.325510         8.8576 
  41   0.0000       0.336229         9.1492 
  42   0.0000       0.351066         9.5530 
  43   0.0000       0.352364         9.5883 
  44   0.0000       0.356896         9.7116 
  45   0.0000       0.386433        10.5154 
  46   0.0000       0.388929        10.5833 
  47   0.0000       0.399430        10.8690 
  48   0.0000       0.400453        10.8969 
  49   0.0000       0.408038        11.1033 
  50   0.0000       0.417039        11.3482 
  51   0.0000       0.424998        11.5648 
  52   0.0000       0.426646        11.6096 
  53   0.0000       0.427856        11.6426 
  54   0.0000       0.430335        11.7100 
  55   0.0000       0.446605        12.1527 
  56   0.0000       0.460085        12.5196 
  57   0.0000       0.464134        12.6297 
  58   0.0000       0.487342        13.2613 
  59   0.0000       0.490799        13.3553 
  60   0.0000       0.491393        13.3715 
  61   0.0000       0.509641        13.8680 
  62   0.0000       0.525594        14.3021 
  63   0.0000       0.527329        14.3494 
  64   0.0000       0.534512        14.5448 
  65   0.0000       0.535940        14.5837 
  66   0.0000       0.538774        14.6608 
  67   0.0000       0.546668        14.8756 
  68   0.0000       0.557414        15.1680 
  69   0.0000       0.565881        15.3984 
  70   0.0000       0.580564        15.7979 
  71   0.0000       0.610024        16.5996 
  72   0.0000       0.611143        16.6300 
  73   0.0000       0.663679        18.0596 
  74   0.0000       0.678742        18.4695 
  75   0.0000       0.681745        18.5512 
  76   0.0000       0.682228        18.5644 
  77   0.0000       0.688661        18.7394 
  78   0.0000       0.694614        18.9014 
  79   0.0000       0.702063        19.1041 
  80   0.0000       0.708780        19.2869 
  81   0.0000       0.714891        19.4532 
  82   0.0000       0.715431        19.4679 
  83   0.0000       0.721996        19.6465 
  84   0.0000       0.735570        20.0159 
  85   0.0000       0.736331        20.0366 
  86   0.0000       0.762477        20.7481 
  87   0.0000       0.762629        20.7522 
  88   0.0000       0.772606        21.0237 
  89   0.0000       0.792933        21.5768 
  90   0.0000       0.798418        21.7261 
  91   0.0000       0.801006        21.7965 
  92   0.0000       0.807929        21.9849 
  93   0.0000       0.820907        22.3380 
  94   0.0000       0.822276        22.3753 
  95   0.0000       0.832429        22.6515 
  96   0.0000       0.842630        22.9291 
  97   0.0000       0.852688        23.2028 
  98   0.0000       0.880533        23.9605 
  99   0.0000       0.894709        24.3463 
 100   0.0000       0.897428        24.4203 
 101   0.0000       0.908073        24.7099 
 102   0.0000       0.915532        24.9129 
 103   0.0000       0.918865        25.0036 
 104   0.0000       0.930867        25.3302 
 105   0.0000       0.931319        25.3425 
 106   0.0000       0.938511        25.5382 
 107   0.0000       0.981288        26.7022 
 108   0.0000       0.990301        26.9475 
 109   0.0000       0.999972        27.2106 
 110   0.0000       1.001788        27.2600 
 111   0.0000       1.027654        27.9639 
 112   0.0000       1.033942        28.1350 
 113   0.0000       1.040268        28.3071 
 114   0.0000       1.070683        29.1348 
 115   0.0000       1.158552        31.5258 
 116   0.0000       1.172049        31.8931 
 117   0.0000       1.197867        32.5956 
 118   0.0000       1.294976        35.2381 
 119   0.0000       1.354156        36.8485 
 120   0.0000       1.376389        37.4535 
 121   0.0000       1.406714        38.2786 
 122   0.0000       1.450658        39.4744 
 123   0.0000       1.483813        40.3766 
 124   0.0000       1.487405        40.4744 
 125   0.0000       1.527206        41.5574 
 126   0.0000       1.549127        42.1539 
 127   0.0000       1.576568        42.9006 
 128   0.0000       1.610082        43.8126 
 129   0.0000       1.615972        43.9728 
 130   0.0000       1.629812        44.3495 
 131   0.0000       1.661783        45.2194 
 132   0.0000       1.662338        45.2345 
 133   0.0000       1.761992        47.9462 
 134   0.0000       1.808959        49.2243 
 135   0.0000       1.843280        50.1582 
 136   0.0000       1.848661        50.3046 
 137   0.0000       1.856009        50.5046 
 138   0.0000       1.984482        54.0005 
 139   0.0000       2.046771        55.6955 
 140   0.0000       2.142982        58.3135 
 141   0.0000       2.330653        63.4203 
 142   0.0000       2.338680        63.6387 
 143   0.0000       2.393698        65.1358 
 144   0.0000       2.396310        65.2069 
 145   0.0000       2.432580        66.1939 
 146   0.0000       2.583335        70.2961 
 147   0.0000       2.621997        71.3482 
 148   0.0000       2.662709        72.4560 
 149   0.0000       2.748786        74.7983 
 150   0.0000       2.860551        77.8395 
 151   0.0000       2.892897        78.7197 
 152   0.0000       2.906107        79.0792 
 153   0.0000       3.027603        82.3853 
 154   0.0000       3.081718        83.8578 
 155   0.0000       3.110518        84.6415 
 156   0.0000       3.259267        88.6892 
 157   0.0000       3.308033        90.0162 
 158   0.0000       3.321531        90.3835 
 159   0.0000       3.388838        92.2150 
 160   0.0000       3.423810        93.1666 
 161   0.0000       3.452002        93.9337 
 162   0.0000       3.467228        94.3481 
 163   0.0000       3.507791        95.4518 
 164   0.0000       3.531247        96.0901 
 165   0.0000       3.587146        97.6112 
 166   0.0000       3.661370        99.6309 
 167   0.0000       3.714852       101.0863 
 168   0.0000       3.753412       102.1355 
 169   0.0000       3.779561       102.8471 
 170   0.0000       3.817079       103.8680 
 171   0.0000       3.927483       106.8722 
 172   0.0000       3.997612       108.7806 
 173   0.0000       4.035767       109.8188 
 174   0.0000       4.083200       111.1095 
 175   0.0000       4.150465       112.9399 
 176   0.0000       4.237883       115.3187 
 177   0.0000       4.297519       116.9414 
 178   0.0000       4.361946       118.6946 
 179   0.0000       4.398812       119.6978 
 180   0.0000       4.516070       122.8885 
 181   0.0000       4.847725       131.9133 
 182   0.0000       4.898373       133.2915 
 183   0.0000       4.965826       135.1270 
 184   0.0000       4.982673       135.5854 
 185   0.0000       5.005600       136.2093 
 186   0.0000       5.174370       140.8018 
 187   0.0000       5.174500       140.8053 
 188   0.0000       5.485379       149.2647 
 189   0.0000       5.556980       151.2131 
 190   0.0000       5.602057       152.4397 
 191   0.0000       5.663154       154.1022 
 192   0.0000       5.708375       155.3328 
 193   0.0000       5.777382       157.2106 
 194   0.0000       5.925176       161.2322 
 195   0.0000       6.117792       166.4736 
 196   0.0000       6.164835       167.7537 
 197   0.0000       6.178786       168.1333 
 198   0.0000       6.213454       169.0767 
 199   0.0000       6.278388       170.8436 
 200   0.0000       6.298855       171.4006 
 201   0.0000       6.496647       176.7828 
 202   0.0000       6.522161       177.4770 
 203   0.0000       6.541982       178.0164 
 204   0.0000       6.861949       186.7231 
 205   0.0000       7.208388       196.1502 
 206   0.0000       7.376276       200.7187 
 207   0.0000       7.445301       202.5969 
 208   0.0000       7.534577       205.0263 
 209   0.0000       7.794112       212.0886 
 210   0.0000       8.023017       218.3174 
 211   0.0000       8.331845       226.7210 
 212   0.0000       8.341954       226.9961 
 213   0.0000       8.351604       227.2587 
 214   0.0000       8.414661       228.9746 
 215   0.0000       8.605445       234.1661 
 216   0.0000       8.741578       237.8704 
 217   0.0000       8.851712       240.8673 
 218   0.0000       8.955148       243.6820 
 219   0.0000       9.039956       245.9897 
 220   0.0000       9.081015       247.1070 
 221   0.0000       9.395449       255.6632 
 222   0.0000       9.425573       256.4829 
 223   0.0000       9.618623       261.7360 
 224   0.0000       9.629369       262.0285 
 225   0.0000       9.816529       267.1213 
 226   0.0000       9.930635       270.2263 
 227   0.0000       9.998513       272.0734 
 228   0.0000      10.057000       273.6649 
 229   0.0000      11.222566       305.3815 
 230   0.0000      11.269353       306.6547 
 231   0.0000      11.288377       307.1724 
 232   0.0000      11.299656       307.4793 
 233   0.0000      11.310643       307.7783 
 234   0.0000      11.317458       307.9637 
 235   0.0000      11.440062       311.2999 
 236   0.0000      11.466951       312.0316 
 237   0.0000      11.484866       312.5191 
 238   0.0000      11.498467       312.8892 
 239   0.0000      11.606857       315.8386 
 240   0.0000      11.640281       316.7482 
 241   0.0000      11.750570       319.7493 
 242   0.0000      11.781581       320.5931 
 243   0.0000      12.216566       332.4297 
 244   0.0000      12.368122       336.5537 
 245   0.0000      12.398291       337.3746 
 246   0.0000      12.506168       340.3101 
 247   0.0000      12.518661       340.6501 
 248   0.0000      12.644319       344.0694 
 249   0.0000      12.652440       344.2904 
 250   0.0000      12.775534       347.6399 
 251   0.0000      12.792486       348.1012 
 252   0.0000      12.893395       350.8471 
 253   0.0000      13.392680       364.4333 
 254   0.0000      13.414839       365.0363 
 255   0.0000      13.900556       378.2534 
 256   0.0000      13.982203       380.4751 
 257   0.0000      14.127456       384.4276 
 258   0.0000      14.132788       384.5727 
 259   0.0000      14.755817       401.5262 
 260   0.0000      14.891405       405.2157 
 261   0.0000      14.971853       407.4048 
 262   0.0000      15.068393       410.0318 
 263   0.0000      15.175012       412.9331 
 264   0.0000      15.260768       415.2666 
 265   0.0000      15.305994       416.4973 
 266   0.0000      15.373474       418.3335 
 267   0.0000      15.619121       425.0179 
 268   0.0000      15.868090       431.7927 
 269   0.0000      16.024155       436.0394 
 270   0.0000      16.175757       440.1647 
 271   0.0000      16.373503       445.5457 
 272   0.0000      16.607374       451.9096 
 273   0.0000      16.723699       455.0750 
 274   0.0000      16.750435       455.8025 
 275   0.0000      16.769689       456.3264 
 276   0.0000      16.891138       459.6312 
 277   0.0000      17.031675       463.4554 
 278   0.0000      17.050159       463.9584 
 279   0.0000      17.150184       466.6802 
 280   0.0000      17.159041       466.9212 
 281   0.0000      17.268005       469.8863 
 282   0.0000      17.503976       476.3074 
 283   0.0000      17.638814       479.9765 
 284   0.0000      17.721257       482.2199 
 285   0.0000      17.764221       483.3890 
 286   0.0000      18.291340       497.7327 
 287   0.0000      18.807802       511.7863 
 288   0.0000      19.026456       517.7362 
 289   0.0000      19.459549       529.5213 
 290   0.0000      19.480909       530.1025 
 291   0.0000      20.474165       557.1304 
 292   0.0000      20.510880       558.1294 
 293   0.0000      20.679259       562.7112 
 294   0.0000      20.831093       566.8429 
 295   0.0000      20.966366       570.5238 
 296   0.0000      21.956174       597.4579 
 297   0.0000      23.399216       636.7250 
 298   0.0000      23.443580       637.9323 
 299   0.0000      23.593824       642.0206 
 300   0.0000      23.596094       642.0823 
 301   0.0000      24.045418       654.3091 
 302   0.0000      25.509239       694.1417 
 303   0.0000      25.831396       702.9080 
 304   0.0000      26.078075       709.6205 
 305   0.0000      27.831909       757.3448 
 306   0.0000      28.449128       774.1401 
 307   0.0000      41.202687      1121.1821 
 308   0.0000      41.292498      1123.6260 
 309   0.0000      47.887382      1303.0819 
 310   0.0000      47.994355      1305.9928 
 311   0.0000      48.080261      1308.3304 
 312   0.0000      48.393836      1316.8632 
 313   0.0000      49.245479      1340.0376 
 314   0.0000      90.945470      2474.7521 
 315   0.0000      90.988328      2475.9183 
 316   0.0000      91.052853      2477.6741 
 317   0.0000      91.065420      2478.0161 
 318   0.0000      92.759911      2524.1255 
 319   0.0000      92.851687      2526.6229 
 320   0.0000     105.176868      2862.0081 

                 SPIN DOWN ORBITALS
  NO   OCC          E(Eh)            E(eV) 
   0   1.0000     -14.000891      -380.9836 
   1   1.0000      -0.738372       -20.0921 
   2   1.0000      -0.416523       -11.3342 
   3   1.0000      -0.265303        -7.2193 
   4   0.0000      -0.166705        -4.5363 
   5   0.0000      -0.021871        -0.5951 
   6   0.0000       0.014203         0.3865 
   7   0.0000       0.028159         0.7662 
   8   0.0000       0.035610         0.9690 
   9   0.0000       0.044065         1.1991 
  10   0.0000       0.054100         1.4721 
  11   0.0000       0.060954         1.6586 
  12   0.0000       0.077599         2.1116 
  13   0.0000       0.085299         2.3211 
  14   0.0000       0.087697         2.3863 
  15   0.0000       0.089641         2.4392 
  16   0.0000       0.124459         3.3867 
  17   0.0000       0.130460         3.5500 
  18   0.0000       0.133405         3.6301 
  19   0.0000       0.148911         4.0521 
  20   0.0000       0.160894         4.3782 
  21   0.0000       0.167575         4.5599 
  22   0.0000       0.178631         4.8608 
  23   0.0000       0.178639         4.8610 
  24   0.0000       0.179323         4.8796 
  25   0.0000       0.191365         5.2073 
  26   0.0000       0.194379         5.2893 
  27   0.0000       0.199218         5.4210 
  28   0.0000       0.219812         5.9814 
  29   0.0000       0.226761         6.1705 
  30   0.0000       0.231846         6.3089 
  31   0.0000       0.232862         6.3365 
  32   0.0000       0.235930         6.4200 
  33   0.0000       0.243144         6.6163 
  34   0.0000       0.254907         6.9364 
  35   0.0000       0.273402         7.4396 
  36   0.0000       0.286434         7.7943 
  37   0.0000       0.320844         8.7306 
  38   0.0000       0.323843         8.8122 
  39   0.0000       0.325865         8.8672 
  40   0.0000       0.334094         9.0911 
  41   0.0000       0.341143         9.2830 
  42   0.0000       0.360887         9.8202 
  43   0.0000       0.362614         9.8672 
  44   0.0000       0.363268         9.8850 
  45   0.0000       0.389647        10.6028 
  46   0.0000       0.402631        10.9562 
  47   0.0000       0.403588        10.9822 
  48   0.0000       0.405079        11.0228 
  49   0.0000       0.409164        11.1339 
  50   0.0000       0.421230        11.4623 
  51   0.0000       0.428658        11.6644 
  52   0.0000       0.431980        11.7548 
  53   0.0000       0.434395        11.8205 
  54   0.0000       0.435630        11.8541 
  55   0.0000       0.459161        12.4944 
  56   0.0000       0.466311        12.6890 
  57   0.0000       0.473310        12.8794 
  58   0.0000       0.488820        13.3015 
  59   0.0000       0.501536        13.6475 
  60   0.0000       0.502609        13.6767 
  61   0.0000       0.520475        14.1628 
  62   0.0000       0.527760        14.3611 
  63   0.0000       0.532794        14.4981 
  64   0.0000       0.538743        14.6599 
  65   0.0000       0.540859        14.7175 
  66   0.0000       0.546300        14.8656 
  67   0.0000       0.549839        14.9619 
  68   0.0000       0.565703        15.3936 
  69   0.0000       0.575079        15.6487 
  70   0.0000       0.606563        16.5054 
  71   0.0000       0.620914        16.8959 
  72   0.0000       0.623120        16.9560 
  73   0.0000       0.666107        18.1257 
  74   0.0000       0.678168        18.4539 
  75   0.0000       0.685628        18.6569 
  76   0.0000       0.686993        18.6940 
  77   0.0000       0.689376        18.7589 
  78   0.0000       0.698535        19.0081 
  79   0.0000       0.707869        19.2621 
  80   0.0000       0.712674        19.3929 
  81   0.0000       0.722361        19.6564 
  82   0.0000       0.724130        19.7046 
  83   0.0000       0.727106        19.7856 
  84   0.0000       0.745511        20.2864 
  85   0.0000       0.747098        20.3296 
  86   0.0000       0.774388        21.0722 
  87   0.0000       0.775288        21.0967 
  88   0.0000       0.779391        21.2083 
  89   0.0000       0.796959        21.6863 
  90   0.0000       0.800817        21.7914 
  91   0.0000       0.810403        22.0522 
  92   0.0000       0.816749        22.2249 
  93   0.0000       0.826134        22.4802 
  94   0.0000       0.828102        22.5338 
  95   0.0000       0.838663        22.8212 
  96   0.0000       0.855233        23.2721 
  97   0.0000       0.859821        23.3969 
  98   0.0000       0.883022        24.0282 
  99   0.0000       0.907489        24.6940 
 100   0.0000       0.912875        24.8406 
 101   0.0000       0.917762        24.9736 
 102   0.0000       0.926041        25.1989 
 103   0.0000       0.932860        25.3844 
 104   0.0000       0.934535        25.4300 
 105   0.0000       0.942199        25.6385 
 106   0.0000       0.943589        25.6764 
 107   0.0000       0.985713        26.8226 
 108   0.0000       0.990788        26.9607 
 109   0.0000       1.007689        27.4206 
 110   0.0000       1.011163        27.5152 
 111   0.0000       1.038568        28.2609 
 112   0.0000       1.040405        28.3109 
 113   0.0000       1.043840        28.4043 
 114   0.0000       1.082924        29.4679 
 115   0.0000       1.172610        31.9083 
 116   0.0000       1.201682        32.6994 
 117   0.0000       1.207783        32.8654 
 118   0.0000       1.316488        35.8235 
 119   0.0000       1.383132        37.6369 
 120   0.0000       1.383249        37.6401 
 121   0.0000       1.410857        38.3914 
 122   0.0000       1.487930        40.4886 
 123   0.0000       1.493416        40.6379 
 124   0.0000       1.496727        40.7280 
 125   0.0000       1.539370        41.8884 
 126   0.0000       1.567843        42.6632 
 127   0.0000       1.596597        43.4456 
 128   0.0000       1.609579        43.7989 
 129   0.0000       1.627096        44.2755 
 130   0.0000       1.637477        44.5580 
 131   0.0000       1.670743        45.4632 
 132   0.0000       1.674833        45.5745 
 133   0.0000       1.770753        48.1846 
 134   0.0000       1.846318        50.2409 
 135   0.0000       1.859913        50.6108 
 136   0.0000       1.870947        50.9111 
 137   0.0000       1.871468        50.9252 
 138   0.0000       2.014276        54.8112 
 139   0.0000       2.081261        56.6340 
 140   0.0000       2.169032        59.0224 
 141   0.0000       2.341669        63.7200 
 142   0.0000       2.348048        63.8936 
 143   0.0000       2.413603        65.6775 
 144   0.0000       2.422029        65.9068 
 145   0.0000       2.465318        67.0847 
 146   0.0000       2.590857        70.5008 
 147   0.0000       2.640510        71.8519 
 148   0.0000       2.679373        72.9095 
 149   0.0000       2.782590        75.7181 
 150   0.0000       2.881298        78.4041 
 151   0.0000       2.939184        79.9793 
 152   0.0000       2.952656        80.3459 
 153   0.0000       3.040403        82.7336 
 154   0.0000       3.115856        84.7868 
 155   0.0000       3.116286        84.7984 
 156   0.0000       3.294640        89.6517 
 157   0.0000       3.315585        90.2217 
 158   0.0000       3.321746        90.3893 
 159   0.0000       3.422582        93.1332 
 160   0.0000       3.447013        93.7980 
 161   0.0000       3.459372        94.1343 
 162   0.0000       3.476096        94.5894 
 163   0.0000       3.517915        95.7273 
 164   0.0000       3.536154        96.2236 
 165   0.0000       3.601260        97.9953 
 166   0.0000       3.676439       100.0410 
 167   0.0000       3.745835       101.9294 
 168   0.0000       3.759426       102.2992 
 169   0.0000       3.785408       103.0062 
 170   0.0000       3.825222       104.0896 
 171   0.0000       4.002571       108.9155 
 172   0.0000       4.015739       109.2738 
 173   0.0000       4.054510       110.3288 
 174   0.0000       4.096738       111.4779 
 175   0.0000       4.158425       113.1565 
 176   0.0000       4.247647       115.5844 
 177   0.0000       4.324707       117.6813 
 178   0.0000       4.382254       119.2472 
 179   0.0000       4.430328       120.5553 
 180   0.0000       4.529197       123.2457 
 181   0.0000       4.850892       131.9995 
 182   0.0000       4.946155       134.5917 
 183   0.0000       4.991784       135.8334 
 184   0.0000       5.031254       136.9074 
 185   0.0000       5.048649       137.3807 
 186   0.0000       5.191027       141.2550 
 187   0.0000       5.198851       141.4679 
 188   0.0000       5.505428       149.8103 
 189   0.0000       5.569301       151.5484 
 190   0.0000       5.628782       153.1670 
 191   0.0000       5.704824       155.2361 
 192   0.0000       5.761530       156.7792 
 193   0.0000       5.803797       157.9294 
 194   0.0000       5.949476       161.8935 
 195   0.0000       6.168617       167.8566 
 196   0.0000       6.174805       168.0250 
 197   0.0000       6.209757       168.9761 
 198   0.0000       6.298438       171.3892 
 199   0.0000       6.327624       172.1834 
 200   0.0000       6.355113       172.9314 
 201   0.0000       6.531924       177.7427 
 202   0.0000       6.548297       178.1882 
 203   0.0000       6.584162       179.1641 
 204   0.0000       6.875363       187.0881 
 205   0.0000       7.210210       196.1998 
 206   0.0000       7.438234       202.4046 
 207   0.0000       7.513370       204.4492 
 208   0.0000       7.592675       206.6072 
 209   0.0000       7.811718       212.5677 
 210   0.0000       8.029895       218.5046 
 211   0.0000       8.346771       227.1272 
 212   0.0000       8.351625       227.2593 
 213   0.0000       8.352159       227.2738 
 214   0.0000       8.445655       229.8180 
 215   0.0000       8.600762       234.0386 
 216   0.0000       8.742230       237.8882 
 217   0.0000       8.854289       240.9374 
 218   0.0000       8.955051       243.6793 
 219   0.0000       9.079224       247.0582 
 220   0.0000       9.144859       248.8443 
 221   0.0000       9.401456       255.8266 
 222   0.0000       9.436599       256.7829 
 223   0.0000       9.659676       262.8531 
 224   0.0000       9.662228       262.9226 
 225   0.0000       9.829665       267.4788 
 226   0.0000       9.962972       271.1063 
 227   0.0000      10.028488       272.8890 
 228   0.0000      10.070438       274.0306 
 229   0.0000      11.241790       305.9047 
 230   0.0000      11.326519       308.2103 
 231   0.0000      11.344783       308.7072 
 232   0.0000      11.351062       308.8781 
 233   0.0000      11.378104       309.6140 
 234   0.0000      11.384734       309.7944 
 235   0.0000      11.473633       312.2134 
 236   0.0000      11.542423       314.0853 
 237   0.0000      11.544885       314.1523 
 238   0.0000      11.555479       314.4406 
 239   0.0000      11.663927       317.3916 
 240   0.0000      11.705609       318.5258 
 241   0.0000      11.752061       319.7898 
 242   0.0000      11.779861       320.5463 
 243   0.0000      12.227220       332.7196 
 244   0.0000      12.374507       336.7275 
 245   0.0000      12.397171       337.3442 
 246   0.0000      12.515178       340.5553 
 247   0.0000      12.523173       340.7729 
 248   0.0000      12.664492       344.6183 
 249   0.0000      12.699225       345.5635 
 250   0.0000      12.778338       347.7163 
 251   0.0000      12.846344       349.5668 
 252   0.0000      12.904373       351.1458 
 253   0.0000      13.406093       364.7983 
 254   0.0000      13.435851       365.6081 
 255   0.0000      13.918734       378.7480 
 256   0.0000      13.994297       380.8042 
 257   0.0000      14.152121       385.0988 
 258   0.0000      14.161176       385.3452 
 259   0.0000      14.847128       404.0109 
 260   0.0000      14.982857       407.7043 
 261   0.0000      15.050371       409.5414 
 262   0.0000      15.149532       412.2397 
 263   0.0000      15.242453       414.7682 
 264   0.0000      15.327044       417.0701 
 265   0.0000      15.355938       417.8563 
 266   0.0000      15.414378       419.4465 
 267   0.0000      15.634116       425.4259 
 268   0.0000      15.866139       431.7396 
 269   0.0000      16.067185       437.2103 
 270   0.0000      16.217108       441.2899 
 271   0.0000      16.416798       446.7238 
 272   0.0000      16.617626       452.1886 
 273   0.0000      16.721101       455.0043 
 274   0.0000      16.748473       455.7491 
 275   0.0000      16.767173       456.2580 
 276   0.0000      16.892901       459.6792 
 277   0.0000      17.052564       464.0239 
 278   0.0000      17.129944       466.1295 
 279   0.0000      17.169409       467.2034 
 280   0.0000      17.209431       468.2924 
 281   0.0000      17.302619       470.8282 
 282   0.0000      17.507209       476.3954 
 283   0.0000      17.657605       480.4879 
 284   0.0000      17.724196       482.2999 
 285   0.0000      17.792289       484.1528 
 286   0.0000      18.298243       497.9205 
 287   0.0000      18.810378       511.8564 
 288   0.0000      19.031173       517.8646 
 289   0.0000      19.460795       529.5551 
 290   0.0000      19.487726       530.2880 
 291   0.0000      20.494677       557.6885 
 292   0.0000      20.530020       558.6502 
 293   0.0000      20.697817       563.2162 
 294   0.0000      20.826656       566.7221 
 295   0.0000      20.964071       570.4614 
 296   0.0000      21.960436       597.5738 
 297   0.0000      23.395250       636.6171 
 298   0.0000      23.440563       637.8501 
 299   0.0000      23.585608       641.7970 
 300   0.0000      23.587514       641.8489 
 301   0.0000      24.072794       655.0540 
 302   0.0000      25.509478       694.1482 
 303   0.0000      25.837447       703.0727 
 304   0.0000      26.181479       712.4343 
 305   0.0000      27.853164       757.9231 
 306   0.0000      28.472261       774.7696 
 307   0.0000      41.196579      1121.0159 
 308   0.0000      41.285736      1123.4420 
 309   0.0000      47.950422      1304.7973 
 310   0.0000      48.059105      1307.7547 
 311   0.0000      48.143562      1310.0529 
 312   0.0000      48.427939      1317.7912 
 313   0.0000      49.256842      1340.3468 
 314   0.0000      90.936461      2474.5069 
 315   0.0000      90.979345      2475.6738 
 316   0.0000      91.042650      2477.3965 
 317   0.0000      91.055222      2477.7386 
 318   0.0000      92.750477      2523.8688 
 319   0.0000      92.842443      2526.3713 
 320   0.0000     105.196978      2862.5553 

                    ********************************
                    * MULLIKEN POPULATION ANALYSIS *
                    ********************************

--------------------------------------------
MULLIKEN ATOMIC CHARGES AND SPIN POPULATIONS
--------------------------------------------
   0 N :   -0.370493    1.015699
   1 H :    0.185243   -0.007851
   2 H :    0.185250   -0.007847
Sum of atomic charges         :    0.0000000
Sum of atomic spin populations:    1.0000000

-----------------------------------------------------
MULLIKEN REDUCED ORBITAL CHARGES AND SPIN POPULATIONS
-----------------------------------------------------
CHARGE
  0 N s       :     3.816350  s :     3.816350
      pz      :     1.428183  p :     3.522495
      px      :     0.952370
      py      :     1.141941
      dz2     :     0.005791  d :     0.030179
      dxz     :     0.002954
      dyz     :     0.018468
      dx2y2   :     0.002966
      dxy     :     0.000000
      f0      :     0.000138  f :     0.001223
      f+1     :    -0.000008
      f-1     :     0.000165
      f+2     :     0.000756
      f-2     :    -0.000000
      f+3     :    -0.000032
      f-3     :     0.000203
      g0      :     0.000050  g :     0.000241
      g+1     :     0.000001
      g-1     :     0.000005
      g+2     :     0.000112
      g-2     :     0.000000
      g+3     :     0.000004
      g-3     :     0.000078
      g+4     :    -0.000009
      g-4     :    -0.000000
      h0      :     0.000004  h :     0.000005
      h+1     :     0.000000
      h-1     :     0.000003
      h+2     :     0.000002
      h-2     :    -0.000000
      h+3     :     0.000000
      h-3     :     0.000002
      h+4     :    -0.000004
      h-4     :    -0.000000
      h+5     :    -0.000001
      h-5     :    -0.000001
  1 H s       :     0.747127  s :     0.747127
      pz      :     0.028866  p :     0.063205
      px      :     0.018828
      py      :     0.015511
      dz2     :     0.001907  d :     0.004142
      dxz     :     0.001417
      dyz     :    -0.000566
      dx2y2   :     0.000010
      dxy     :     0.001375
      f0      :    -0.000034  f :     0.000201
      f+1     :     0.000076
      f-1     :     0.000151
      f+2     :    -0.000349
      f-2     :     0.000565
      f+3     :     0.000008
      f-3     :    -0.000215
      g0      :    -0.000030  g :     0.000082
      g+1     :    -0.000001
      g-1     :     0.000058
      g+2     :     0.000014
      g-2     :     0.000031
      g+3     :     0.000083
      g-3     :    -0.000019
      g+4     :    -0.000030
      g-4     :    -0.000025
  2 H s       :     0.747122  s :     0.747122
      pz      :     0.028866  p :     0.063203
      px      :     0.018828
      py      :     0.015510
      dz2     :     0.001907  d :     0.004142
      dxz     :     0.001417
      dyz     :    -0.000567
      dx2y2   :     0.000010
      dxy     :     0.001375
      f0      :    -0.000034  f :     0.000201
      f+1     :     0.000076
      f-1     :     0.000151
      f+2     :    -0.000349
      f-2     :     0.000565
      f+3     :     0.000008
      f-3     :    -0.000215
      g0      :    -0.000030  g :     0.000082
      g+1     :    -0.000001
      g-1     :     0.000058
      g+2     :     0.000014
      g-2     :     0.000031
      g+3     :     0.000083
      g-3     :    -0.000019
      g+4     :    -0.000030
      g-4     :    -0.000025

SPIN
  0 N s       :    -0.003878  s :    -0.003878
      pz      :     0.031297  p :     1.013901
      px      :     0.952370
      py      :     0.030233
      dz2     :     0.001899  d :     0.006909
      dxz     :     0.002954
      dyz     :     0.003379
      dx2y2   :    -0.001323
      dxy     :    -0.000000
      f0      :     0.000189  f :    -0.001247
      f+1     :    -0.000008
      f-1     :    -0.000085
      f+2     :    -0.000749
      f-2     :    -0.000000
      f+3     :    -0.000032
      f-3     :    -0.000563
      g0      :     0.000018  g :     0.000006
      g+1     :     0.000001
      g-1     :     0.000014
      g+2     :    -0.000017
      g-2     :    -0.000000
      g+3     :     0.000004
      g-3     :    -0.000018
      g+4     :     0.000004
      g-4     :    -0.000000
      h0      :    -0.000002  h :     0.000007
      h+1     :     0.000000
      h-1     :     0.000001
      h+2     :     0.000001
      h-2     :    -0.000000
      h+3     :     0.000000
      h-3     :     0.000003
      h+4     :     0.000003
      h-4     :    -0.000000
      h+5     :    -0.000001
      h-5     :     0.000001
  1 H s       :    -0.022992  s :    -0.022992
      pz      :    -0.004805  p :     0.010815
      px      :     0.018828
      py      :    -0.003207
      dz2     :    -0.000423  d :     0.003067
      dxz     :     0.001417
      dyz     :     0.000761
      dx2y2   :    -0.000064
      dxy     :     0.001375
      f0      :     0.000069  f :     0.001118
      f+1     :     0.000076
      f-1     :     0.000111
      f+2     :     0.000170
      f-2     :     0.000565
      f+3     :     0.000008
      f-3     :     0.000121
      g0      :     0.000013  g :     0.000140
      g+1     :    -0.000001
      g-1     :    -0.000000
      g+2     :     0.000018
      g-2     :     0.000031
      g+3     :     0.000083
      g-3     :     0.000003
      g+4     :     0.000019
      g-4     :    -0.000025
  2 H s       :    -0.022989  s :    -0.022989
      pz      :    -0.004805  p :     0.010817
      px      :     0.018828
      py      :    -0.003206
      dz2     :    -0.000423  d :     0.003067
      dxz     :     0.001417
      dyz     :     0.000762
      dx2y2   :    -0.000064
      dxy     :     0.001375
      f0      :     0.000069  f :     0.001118
      f+1     :     0.000076
      f-1     :     0.000110
      f+2     :     0.000170
      f-2     :     0.000565
      f+3     :     0.000008
      f-3     :     0.000121
      g0      :     0.000013  g :     0.000140
      g+1     :    -0.000001
      g-1     :    -0.000000
      g+2     :     0.000018
      g-2     :     0.000031
      g+3     :     0.000083
      g-3     :     0.000003
      g+4     :     0.000019
      g-4     :    -0.000025


                     *******************************
                     * LOEWDIN POPULATION ANALYSIS *
                     *******************************

-------------------------------------------
LOEWDIN ATOMIC CHARGES AND SPIN POPULATIONS
-------------------------------------------
   0 N :    1.159561    0.669594
   1 H :   -0.579781    0.165203
   2 H :   -0.579781    0.165203

----------------------------------------------------
LOEWDIN REDUCED ORBITAL CHARGES AND SPIN POPULATIONS
----------------------------------------------------
CHARGE
  0 N s       :     2.881796  s :     2.881796
      pz      :     1.188891  p :     2.859011
      px      :     0.648103
      py      :     1.022018
      dz2     :     0.002999  d :     0.082098
      dxz     :     0.001290
      dyz     :     0.058772
      dx2y2   :     0.019036
      dxy     :     0.000000
      f0      :     0.001758  f :     0.014846
      f+1     :     0.000126
      f-1     :     0.004964
      f+2     :     0.005649
      f-2     :     0.000000
      f+3     :     0.000757
      f-3     :     0.001591
      g0      :     0.000157  g :     0.001768
      g+1     :     0.000002
      g-1     :     0.000189
      g+2     :     0.000508
      g-2     :     0.000000
      g+3     :     0.000189
      g-3     :     0.000638
      g+4     :     0.000085
      g-4     :     0.000000
      h0      :     0.000162  h :     0.000920
      h+1     :     0.000007
      h-1     :     0.000121
      h+2     :     0.000282
      h-2     :     0.000000
      h+3     :     0.000110
      h-3     :     0.000055
      h+4     :     0.000064
      h-4     :     0.000000
      h+5     :     0.000034
      h-5     :     0.000085
  1 H s       :     0.689324  s :     0.689324
      pz      :     0.219177  p :     0.494825
      px      :     0.086417
      py      :     0.189231
      dz2     :     0.081998  d :     0.310670
      dxz     :     0.024662
      dyz     :     0.092551
      dx2y2   :     0.067847
      dxy     :     0.043613
      f0      :     0.005124  f :     0.074622
      f+1     :     0.000832
      f-1     :     0.028829
      f+2     :     0.010737
      f-2     :     0.010845
      f+3     :     0.006647
      f-3     :     0.011608
      g0      :     0.001052  g :     0.010339
      g+1     :     0.000010
      g-1     :     0.001192
      g+2     :     0.003086
      g-2     :     0.000281
      g+3     :     0.000929
      g-3     :     0.001235
      g+4     :     0.002099
      g-4     :     0.000456
  2 H s       :     0.689324  s :     0.689324
      pz      :     0.219177  p :     0.494825
      px      :     0.086417
      py      :     0.189231
      dz2     :     0.081998  d :     0.310670
      dxz     :     0.024662
      dyz     :     0.092551
      dx2y2   :     0.067847
      dxy     :     0.043613
      f0      :     0.005124  f :     0.074622
      f+1     :     0.000832
      f-1     :     0.028829
      f+2     :     0.010737
      f-2     :     0.010845
      f+3     :     0.006647
      f-3     :     0.011608
      g0      :     0.001052  g :     0.010339
      g+1     :     0.000010
      g-1     :     0.001192
      g+2     :     0.003086
      g-2     :     0.000281
      g+3     :     0.000929
      g-3     :     0.001235
      g+4     :     0.002099
      g-4     :     0.000456

SPIN
  0 N s       :     0.007175  s :     0.007175
      pz      :     0.004709  p :     0.663928
      px      :     0.648103
      py      :     0.011116
      dz2     :    -0.000135  d :    -0.001047
      dxz     :     0.001290
      dyz     :    -0.001973
      dx2y2   :    -0.000229
      dxy     :     0.000000
      f0      :     0.000293  f :    -0.000722
      f+1     :     0.000126
      f-1     :    -0.000403
      f+2     :    -0.001001
      f-2     :    -0.000000
      f+3     :     0.000757
      f-3     :    -0.000494
      g0      :     0.000003  g :     0.000105
      g+1     :     0.000002
      g-1     :     0.000003
      g+2     :    -0.000034
      g-2     :     0.000000
      g+3     :     0.000189
      g-3     :    -0.000055
      g+4     :    -0.000004
      g-4     :    -0.000000
      h0      :     0.000003  h :     0.000155
      h+1     :     0.000007
      h-1     :    -0.000001
      h+2     :     0.000004
      h-2     :     0.000000
      h+3     :     0.000110
      h-3     :    -0.000000
      h+4     :     0.000000
      h-4     :     0.000000
      h+5     :     0.000034
      h-5     :    -0.000001
  1 H s       :    -0.012818  s :    -0.012818
      pz      :    -0.001552  p :     0.086949
      px      :     0.086417
      py      :     0.002084
      dz2     :     0.000244  d :     0.071003
      dxz     :     0.024662
      dyz     :     0.002335
      dx2y2   :     0.000149
      dxy     :     0.043613
      f0      :     0.000146  f :     0.018548
      f+1     :     0.000832
      f-1     :     0.000360
      f+2     :    -0.000039
      f-2     :     0.010845
      f+3     :     0.006647
      f-3     :    -0.000242
      g0      :     0.000064  g :     0.001520
      g+1     :     0.000010
      g-1     :     0.000025
      g+2     :    -0.000071
      g-2     :     0.000281
      g+3     :     0.000929
      g-3     :    -0.000052
      g+4     :    -0.000120
      g-4     :     0.000456
  2 H s       :    -0.012818  s :    -0.012818
      pz      :    -0.001552  p :     0.086949
      px      :     0.086417
      py      :     0.002084
      dz2     :     0.000244  d :     0.071003
      dxz     :     0.024662
      dyz     :     0.002335
      dx2y2   :     0.000149
      dxy     :     0.043613
      f0      :     0.000146  f :     0.018548
      f+1     :     0.000832
      f-1     :     0.000360
      f+2     :    -0.000039
      f-2     :     0.010845
      f+3     :     0.006647
      f-3     :    -0.000242
      g0      :     0.000064  g :     0.001520
      g+1     :     0.000010
      g-1     :     0.000025
      g+2     :    -0.000071
      g-2     :     0.000281
      g+3     :     0.000929
      g-3     :    -0.000052
      g+4     :    -0.000120
      g-4     :     0.000456


                      *****************************
                      * MAYER POPULATION ANALYSIS *
                      *****************************

  NA   - Mulliken gross atomic population
  ZA   - Total nuclear charge
  QA   - Mulliken gross atomic charge
  VA   - Mayer's total valence
  BVA  - Mayer's bonded valence
  FA   - Mayer's free valence

  ATOM       NA         ZA         QA         VA         BVA        FA
  0 N      7.3705     7.0000    -0.3705     2.8418     1.9227     0.9191
  1 H      0.8148     1.0000     0.1852     0.9841     0.9828     0.0013
  2 H      0.8147     1.0000     0.1853     0.9841     0.9828     0.0013

  Mayer bond orders larger than 0.1
B(  0-N ,  1-H ) :   0.9614 B(  0-N ,  2-H ) :   0.9614 

-------
TIMINGS
-------

Total SCF time: 0 days 0 hours 19 min 5 sec 

Total time                  ....    1145.410 sec
Sum of individual times     ....    1144.862 sec  (100.0%)

Fock matrix formation       ....    1138.820 sec  ( 99.4%)
  XC integration            ....      74.267 sec  (  6.5% of F)
    Basis function eval.    ....       5.485 sec  (  7.4% of XC)
    Density eval.           ....      15.775 sec  ( 21.2% of XC)
    XC-Functional eval.     ....       0.735 sec  (  1.0% of XC)
    XC-Potential eval.      ....      51.660 sec  ( 69.6% of XC)
Diagonalization             ....       0.699 sec  (  0.1%)
Density matrix formation    ....       0.013 sec  (  0.0%)
Population analysis         ....       0.091 sec  (  0.0%)
Initial guess               ....       3.236 sec  (  0.3%)
Orbital Transformation      ....       0.000 sec  (  0.0%)
Orbital Orthonormalization  ....       0.000 sec  (  0.0%)
DIIS solution               ....       0.330 sec  (  0.0%)
Grid generation             ....       1.673 sec  (  0.1%)

-------------------------   --------------------
FINAL SINGLE POINT ENERGY       -55.836551918232
-------------------------   --------------------


                            ***************************************
                            *     ORCA property calculations      *
                            ***************************************

                                    ---------------------
                                    Active property flags
                                    ---------------------
   (+) Dipole Moment
   (+) Polarizability


------------------------------------------------------------------------------
                       ORCA ELECTRIC PROPERTIES CALCULATION
------------------------------------------------------------------------------

Dipole Moment Calculation                       ... on
Quadrupole Moment Calculation                   ... off
Polarizability Calculation                      ... Analytic (CP-SCF)
GBWName                                         ... nh2_pbe.gbw
Electron density file                           ... nh2_pbe.scfp.tmp
The origin for moment calculation is the CENTER OF MASS  = ( 0.000000,  0.000000  0.150909)

-------------
DIPOLE MOMENT
-------------
                                X             Y             Z
Electronic contribution:     -0.00000       0.00000      -0.36364
Nuclear contribution   :      0.00000       0.00000       1.04064
                        -----------------------------------------
Total Dipole Moment    :     -0.00000       0.00000       0.67700
                        -----------------------------------------
Magnitude (a.u.)       :      0.67700
Magnitude (Debye)      :      1.72079



--------------------
Rotational spectrum 
--------------------
 
Rotational constants in cm-1:    23.744776    12.948710     8.379259 
Rotational constants in MHz : 711850.482242 388192.571145 251203.867087 

 Dipole components along the rotational axes: 
x,y,z [a.u.] :     0.000000     0.676996    -0.000000 
x,y,z [Debye]:     0.000000     1.720787    -0.000000 

 
Transforming and storing MO dipole integrals   ... done

                ... starting polarizability calculation

Opening the Dipole integral file               ... (nh2_pbe.dmo.tmp) done
Reading Dipole-MO integrals                    ... done
Solving CP-SCF equations                       ... 
------------------------------------------------------------------------------
                           ORCA CP-SCF CALCULATION
------------------------------------------------------------------------------

Input orbitals are from        ... nh2_pbe.gbw
Input Perturbation             ... nh2_pbe.cpv.tmp
Wavefunction output            ... nh2_pbe.cpu.tmp
Perturbation mode              ... Real perturbation (singlet)
Solver                         ... POPLE
Max. number of iterations      ... 200
Convergence tolerance          ... 1.000e-06
Integral handling              ... Direct
Number of perturbations        ... 3
Number of operators            ... 2
Orbital ranges used for CP-SCF:
 Operator 0:  Orbitals   0...  4  to   5...320
 Operator 1:  Orbitals   0...  3  to   4...320
DFT calculation                         ... on
Exchange functional (SCF)               ... PBE
Exchange functional (CP-SCF)            ... PBE
   PBE kappa parameter  XKappa (SCF)    ...  0.804000
   PBE kappa parameter  XKappa (CP-SCF) ...  0.804000
   PBE mue parameter   XMuePBE (SCF)    ...  0.219520
   PBE mue parameter   XMuePBE (CP-SCF) ...  0.219520
Correlation functional (SCF)            ... PBE
Correlation functional (CP-SCF)         ... PBE
   PBE beta parameter CBetaPBE (SCF)    ...  0.066725
   PBE beta parameter CBetaPBE (CP-SCF) ...  0.066725
 LDA part of GGA corr.  LDAOpt (SCF)    ... PW91-LDA
 LDA part of GGA corr.  LDAOpt (CP-SCF) ... PW91-LDA
Variables per vector in CP-SCF ... 2848
Number of vectors sought       ... 3
Recalculating density on grid  ... done
Calculating the xc-kernel      ... done
     CP-SCF ITERATION   0: 
     CP-SCF ITERATION   1:      0.089789628263
     CP-SCF ITERATION   2:      0.001305517320
     CP-SCF ITERATION   3:      0.000031511969
     CP-SCF ITERATION   4:      0.000000811637
done
Reading CP-SCF coefficients                    ... done
Doing the polarizability tensor   ... done
Cleaning up                                    ... done

-------------------------
THE POLARIZABILITY TENSOR
-------------------------

The raw cartesian tensor (atomic units):
   11.57003     -0.00000      0.00000  
   -0.00000     13.45148     -0.00000  
    0.00000     -0.00000     14.46144  
diagonalized tensor: 
   11.57003     13.45148     14.46144  

    1.00000     -0.00000      0.00000  
    0.00000      1.00000     -0.00000  
   -0.00000      0.00000      1.00000  

Isotropic polarizability :  13.16099


Timings for individual modules:

Sum of individual times         ...     1949.147 sec (=  32.486 min)
GTO integral calculation        ...        0.764 sec (=   0.013 min)   0.0 %
SCF iterations                  ...     1145.455 sec (=  19.091 min)  58.8 %
Solution of CP-SCF eqns.        ...      802.928 sec (=  13.382 min)  41.2 %
                             ****ORCA TERMINATED NORMALLY****
TOTAL RUN TIME: 0 days 0 hours 32 minutes 29 seconds 508 msec
