
                                 *****************
                                 * O   R   C   A *
                                 *****************

           --- An Ab Initio, DFT and Semiempirical electronic structure package ---

                  #######################################################
                  #                        -***-                        #
                  #          Department of theory and spectroscopy      #
                  #               Directorship: Frank Neese             #
                  #        Max Planck Institute fuer Kohlenforschung    #
                  #                Kaiser Wilhelm Platz 1               #
                  #                 D-45470 Muelheim/Ruhr               #
                  #                      Germany                        #
                  #                                                     #
                  #                  All rights reserved                #
                  #                        -***-                        #
                  #######################################################


                         Program Version 4.1.2  - RELEASE  -


 With contributions from (in alphabetic order):
   Daniel Aravena         : Magnetic Properties
   Michael Atanasov       : Ab Initio Ligand Field Theory
   Alexander A. Auer      : GIAO ZORA
   Ute Becker             : Parallelization
   Giovanni Bistoni       : ED, Open-shell LED
   Martin Brehm           : Molecular dynamics
   Dmytro Bykov           : SCF Hessian
   Vijay G. Chilkuri      : MRCI spin determinant printing
   Dipayan Datta          : RHF DLPNO-CCSD density
   Achintya Kumar Dutta   : EOM-CC, STEOM-CC
   Dmitry Ganyushin       : Spin-Orbit,Spin-Spin,Magnetic field MRCI
   Miquel Garcia          : C-PCM Hessian
   Yang Guo               : DLPNO-NEVPT2, CIM, IAO-localization
   Andreas Hansen         : Spin unrestricted coupled pair/coupled cluster methods
   Benjamin Helmich-Paris : CASSCF linear response (MC-RPA)
   Lee Huntington         : MR-EOM, pCC
   Robert Izsak           : Overlap fitted RIJCOSX, COSX-SCS-MP3, EOM
   Christian Kollmar      : KDIIS, OOCD, Brueckner-CCSD(T), CCSD density
   Simone Kossmann        : Meta GGA functionals, TD-DFT gradient, OOMP2, MP2 Hessian
   Martin Krupicka        : AUTO-CI
   Lucas Lang             : DCDCAS
   Dagmar Lenk            : GEPOL surface, SMD
   Dimitrios Liakos       : Extrapolation schemes; parallel MDCI
   Dimitrios Manganas     : ROCIS; embedding schemes
   Dimitrios Pantazis     : SARC Basis sets
   Taras Petrenko         : DFT Hessian,TD-DFT gradient, ASA, ECA, R-Raman, ABS, FL, XAS/XES, NRVS
   Peter Pinski           : DLPNO-MP2, DLPNO-MP2 Gradient
   Christoph Reimann      : Effective Core Potentials
   Marius Retegan         : Local ZFS, SOC
   Christoph Riplinger    : Optimizer, TS searches, QM/MM, DLPNO-CCSD(T), (RO)-DLPNO pert. Triples
   Tobias Risthaus        : Range-separated hybrids, TD-DFT gradient, RPA, STAB
   Michael Roemelt        : Restricted open shell CIS
   Masaaki Saitow         : Open-shell DLPNO
   Barbara Sandhoefer     : DKH picture change effects
   Avijit Sen             : IP-ROCIS
   Kantharuban Sivalingam : CASSCF convergence, NEVPT2, FIC-MRCI
   Bernardo de Souza      : ESD, SOC TD-DFT
   Georgi Stoychev        : AutoAux, RI-MP2 NMR
   Willem Van den Heuvel  : Paramagnetic NMR
   Boris Wezisla          : Elementary symmetry handling
   Frank Wennmohs         : Technical directorship


 We gratefully acknowledge several colleagues who have allowed us to
 interface, adapt or use parts of their codes:
   Stefan Grimme, W. Hujo, H. Kruse,             : VdW corrections, initial TS optimization,
                  C. Bannwarth                     DFT functionals, gCP, sTDA/sTD-DF
   Ed Valeev                                     : LibInt (2-el integral package), F12 methods
   Garnet Chan, S. Sharma, J. Yang, R. Olivares  : DMRG
   Ulf Ekstrom                                   : XCFun DFT Library
   Mihaly Kallay                                 : mrcc  (arbitrary order and MRCC methods)
   Andreas Klamt, Michael Diedenhofen            : otool_cosmo (COSMO solvation model)
   Jiri Pittner, Ondrej Demel                    : Mk-CCSD
   Frank Weinhold                                : gennbo (NPA and NBO analysis)
   Christopher J. Cramer and Donald G. Truhlar   : smd solvation model
   Lars Goerigk                                  : TD-DFT with DH, B97 family of functionals
   V. Asgeirsson, H. Jonsson                     : NEB implementation
   FAccTs GmbH                                   : IRC, NEB, NEB-TS, Multilevel


 Your calculation uses the libint2 library for the computation of 2-el integrals
 For citations please refer to: http://libint.valeyev.net

 This ORCA versions uses:
   CBLAS   interface :  Fast vector & matrix operations
   LAPACKE interface :  Fast linear algebra routines
   SCALAPACK package :  Parallel linear algebra routines


----- Orbital basis set information -----
Your calculation utilizes the basis: aug-pc-4
   H, C-F              : F. Jensen, J. Chem. Phys. 115, 9113 (2001).
                         F. Jensen, J. Chem. Phys. 116, 7372 (2002).
                         F. Jensen, J. Chem. Phys. 117, 9234 (2002).
   Si-Cl               : F. Jensen, T. Helgaker, J. Chem. Phys. 121, 3463 (2004).
   He-B, Ne-Mg, Al, Ar : F. Jensen, J. Phys. Chem. A 111, 11198 (2007).
   K, Ca, Ga-Kr        : F. Jensen, J. Chem. Phys. 136, 094110 (2012).
   Sc-Zn               : F. Jensen, J. Chem. Phys. 138, 014107 (2013).

================================================================================
                                        WARNINGS
                       Please study these warnings very carefully!
================================================================================


INFO   : the flag for use of LIBINT has been found!

================================================================================
                                       INPUT FILE
================================================================================
NAME = nh2cl_pbe.inp
|  1> !uks pbe nori aug-pc-4 grid7 nofinalgrid verytightscf
|  2> 
|  3> %maxcore 1500
|  4> 
|  5> %pal nprocs 1 end
|  6> 
|  7> %scf
|  8> 	maxiter 200
|  9> end
| 10> %elprop
| 11> 	dipole true
| 12> 	 polar 1
| 13> 	 maxiter 200
| 14> end
| 15> 
| 16> * xyz 0 1
| 17> Cl 0.0000000000 0.0000000000 0.0000000000
| 18> N 0.0000000000 0.0000000000 1.7475500000
| 19> H 0.9877064288 0.0000000000 1.9857191054
| 20> H -0.3322887804 -0.9301334032 1.9857191227
| 21> *
| 22> 
| 23>                          ****END OF INPUT****
================================================================================

                       ****************************
                       * Single Point Calculation *
                       ****************************

---------------------------------
CARTESIAN COORDINATES (ANGSTROEM)
---------------------------------
  Cl     0.000000    0.000000    0.000000
  N      0.000000    0.000000    1.747550
  H      0.987706    0.000000    1.985719
  H     -0.332289   -0.930133    1.985719

----------------------------
CARTESIAN COORDINATES (A.U.)
----------------------------
  NO LB      ZA    FRAG     MASS         X           Y           Z
   0 Cl   17.0000    0    35.453    0.000000    0.000000    0.000000
   1 N     7.0000    0    14.007    0.000000    0.000000    3.302391
   2 H     1.0000    0     1.008    1.866495    0.000000    3.752465
   3 H     1.0000    0     1.008   -0.627935   -1.757697    3.752465

--------------------------------
INTERNAL COORDINATES (ANGSTROEM)
--------------------------------
 Cl     0   0   0     0.000000000000     0.00000000     0.00000000
 N      1   0   0     1.747550000000     0.00000000     0.00000000
 H      2   1   0     1.016016000002   103.55712500     0.00000000
 H      2   1   3     1.016016000039   103.55712600   250.34080700

---------------------------
INTERNAL COORDINATES (A.U.)
---------------------------
 Cl     0   0   0     0.000000000000     0.00000000     0.00000000
 N      1   0   0     3.302390905334     0.00000000     0.00000000
 H      2   1   0     1.919991987686   103.55712500     0.00000000
 H      2   1   3     1.919991987756   103.55712600   250.34080700

---------------------
BASIS SET INFORMATION
---------------------
There are 3 groups of distinct atoms

 Group   1 Type Cl  : 44s27p7d4f3g2h contracted to 8s7p7d4f3g2h pattern {15121211111/111111111/1111111/1111/111/11}
 Group   2 Type N   : 27s12p7d4f3g2h contracted to 9s8p7d4f3g2h pattern {1191111111/51111111/1111111/1111/111/11}
 Group   3 Type H   : 12s7p4d3f2g contracted to 8s7p4d3f2g pattern {51111111/1111111/1111/111/11}

Atom   0Cl   basis set group =>   1
Atom   1N    basis set group =>   2
Atom   2H    basis set group =>   3
Atom   3H    basis set group =>   3
------------------------------------------------------------------------------
                           ORCA GTO INTEGRAL CALCULATION
------------------------------------------------------------------------------

                         BASIS SET STATISTICS AND STARTUP INFO

 # of primitive gaussian shells          ...  198
 # of primitive gaussian functions       ...  596
 # of contracted shells                  ...  112
 # of contracted basis functions         ...  462
 Highest angular momentum                ...    5
 Maximum contraction depth               ...   15
 Integral package used                   ... LIBINT
 Integral threshhold            Thresh   ...  1.000e-12
 Primitive cut-off              TCut     ...  1.000e-14


------------------------------ INTEGRAL EVALUATION ----------------------------


 * One electron integrals 
 Pre-screening matrix                    ... done
 Shell pair data                         ... done (   0.002 sec)

-------------------------------------------------------------------------------
                                 ORCA SCF
-------------------------------------------------------------------------------

------------
SCF SETTINGS
------------
Hamiltonian:
 Density Functional     Method          .... DFT(GTOs)
 Exchange Functional    Exchange        .... PBE
   PBE kappa parameter   XKappa         ....  0.804000
   PBE mue parameter    XMuePBE         ....  0.219520
 Correlation Functional Correlation     .... PBE
   PBE beta parameter  CBetaPBE         ....  0.066725
 LDA part of GGA corr.  LDAOpt          .... PW91-LDA
 Gradients option       PostSCFGGA      .... off
   Density functional embedding theory  .... OFF
   NL short-range parameter             ....  6.400000


General Settings:
 Integral files         IntName         .... nh2cl_pbe
 Hartree-Fock type      HFTyp           .... UHF
 Total Charge           Charge          ....    0
 Multiplicity           Mult            ....    1
 Number of Electrons    NEL             ....   26
 Basis Dimension        Dim             ....  462
 Nuclear Repulsion      ENuc            ....     51.7664518318 Eh

Convergence Acceleration:
 DIIS                   CNVDIIS         .... on
   Start iteration      DIISMaxIt       ....    12
   Startup error        DIISStart       ....  0.200000
   # of expansion vecs  DIISMaxEq       ....     5
   Bias factor          DIISBfac        ....   1.050
   Max. coefficient     DIISMaxC        ....  10.000
 Newton-Raphson         CNVNR           .... off
 SOSCF                  CNVSOSCF        .... off
 Level Shifting         CNVShift        .... on
   Level shift para.    LevelShift      ....    0.2500
   Turn off err/grad.   ShiftErr        ....    0.0010
 Zerner damping         CNVZerner       .... off
 Static damping         CNVDamp         .... on
   Fraction old density DampFac         ....    0.7000
   Max. Damping (<1)    DampMax         ....    0.9800
   Min. Damping (>=0)   DampMin         ....    0.0000
   Turn off err/grad.   DampErr         ....    0.1000
 Fernandez-Rico         CNVRico         .... off

SCF Procedure:
 Maximum # iterations   MaxIter         ....   200
 SCF integral mode      SCFMode         .... Direct
   Integral package                     .... LIBINT
 Reset frequency        DirectResetFreq ....    20
 Integral Threshold     Thresh          ....  1.000e-12 Eh
 Primitive CutOff       TCut            ....  1.000e-14 Eh

Convergence Tolerance:
 Convergence Check Mode ConvCheckMode   .... Total+1el-Energy
 Convergence forced     ConvForced      .... 0
 Energy Change          TolE            ....  1.000e-09 Eh
 1-El. energy change                    ....  1.000e-06 Eh
 DIIS Error             TolErr          ....  1.000e-08


Diagonalization of the overlap matrix:
Smallest eigenvalue                        ... 1.461e-06
Time for diagonalization                   ...    0.049 sec
Threshold for overlap eigenvalues          ... 1.000e-08
Number of eigenvalues below threshold      ... 0
Time for construction of square roots      ...    0.030 sec
Total time needed                          ...    0.080 sec

-------------------
DFT GRID GENERATION
-------------------

General Integration Accuracy     IntAcc      ...  5.670
Radial Grid Type                 RadialGrid  ... Gauss-Chebyshev
Angular Grid (max. acc.)         AngularGrid ... Lebedev-770
Angular grid pruning method      GridPruning ... 3 (G Style)
Weight generation scheme         WeightScheme... Becke
Basis function cutoff            BFCut       ...    1.0000e-12
Integration weight cutoff        WCut        ...    1.0000e-14
Grids for H and He will be reduced by one unit

# of grid points (after initial pruning)     ...  88054 (   0.0 sec)
# of grid points (after weights+screening)   ...  86505 (   0.0 sec)
nearest neighbour list constructed           ...    0.0 sec
Grid point re-assignment to atoms done       ...    0.0 sec
Grid point division into batches done        ...    1.7 sec
Reduced shell lists constructed in    2.9 sec

Total number of grid points                  ...    86505
Total number of batches                      ...     1353
Average number of points per batch           ...       63
Average number of grid points per atom       ...    21626
Average number of shells per batch           ...    83.28 (74.36%)
Average number of basis functions per batch  ...   352.81 (76.37%)
Average number of large shells per batch     ...    74.24 (89.15%)
Average number of large basis fcns per batch ...   315.77 (89.50%)
Maximum spatial batch extension              ...  16.46, 20.33, 15.26 au
Average spatial batch extension              ...   2.01,  2.01,  1.97 au

Time for grid setup =    2.961 sec

------------------------------
INITIAL GUESS: MODEL POTENTIAL
------------------------------
Loading Hartree-Fock densities                     ... done
Calculating cut-offs                               ... done
Setting up the integral package                    ... done
Initializing the effective Hamiltonian             ... done
Starting the Coulomb interaction                   ... done (   0.2 sec)
Reading the grid                                   ... done
Mapping shells                                     ... done
Starting the XC term evaluation                    ... done (   7.6 sec)
  promolecular density results
     # of electrons  =     25.999020486
     EX              =    -34.485548867
     EC              =     -0.952004110
     EX+EC           =    -35.437552978
Transforming the Hamiltonian                       ... done (   0.0 sec)
Diagonalizing the Hamiltonian                      ... done (   0.0 sec)
Back transforming the eigenvectors                 ... done (   0.0 sec)
Now organizing SCF variables                       ... done
                      ------------------
                      INITIAL GUESS DONE (  11.0 sec)
                      ------------------
--------------
SCF ITERATIONS
--------------
ITER       Energy         Delta-E        Max-DP      RMS-DP      [F,P]     Damp
               ***  Starting incremental Fock matrix formation  ***
  0   -515.8617031097   0.000000000000 0.01498932  0.00013407  0.2130928 0.7000
  1   -515.8942331834  -0.032530073695 0.01374739  0.00009409  0.0717431 0.7000
                               ***Turning on DIIS***
  2   -515.9020121344  -0.007778950983 0.01698011  0.00014409  0.0162939 0.0000
  3   -515.9195376328  -0.017525498466 0.01118714  0.00006447  0.0427592 0.0000
  4   -515.9219252886  -0.002387655797 0.00859151  0.00004201  0.0146175 0.0000
  5   -515.9224346213  -0.000509332700 0.00124342  0.00001068  0.0020591 0.0000
  6   -515.9224468791  -0.000012257788 0.00083904  0.00000640  0.0006314 0.0000
  7   -515.9224488131  -0.000001934015 0.00019346  0.00000121  0.0002123 0.0000
  8   -515.9224489325  -0.000000119370 0.00007221  0.00000052  0.0002148 0.0000
  9   -515.9224489810  -0.000000048444 0.00002787  0.00000019  0.0001197 0.0000
 10   -515.9224490009  -0.000000019938 0.00001949  0.00000014  0.0000082 0.0000
 11   -515.9224490011  -0.000000000225 0.00003203  0.00000014  0.0000060 0.0000
                 **** Energy Check signals convergence ****

               *****************************************************
               *                     SUCCESS                       *
               *           SCF CONVERGED AFTER  12 CYCLES          *
               *****************************************************


----------------
TOTAL SCF ENERGY
----------------

Total Energy       :         -515.92244900 Eh          -14038.96356 eV

Components:
Nuclear Repulsion  :           51.76645183 Eh            1408.63677 eV
Electronic Energy  :         -567.68890083 Eh          -15447.60033 eV
One Electron Energy:         -813.73777140 Eh          -22142.93048 eV
Two Electron Energy:          246.04887057 Eh            6695.33015 eV

Virial components:
Potential Energy   :        -1031.26881396 Eh          -28062.25109 eV
Kinetic Energy     :          515.34636496 Eh           14023.28752 eV
Virial Ratio       :            2.00111786


DFT components:
N(Alpha)           :       12.999999994848 electrons
N(Beta)            :       12.999999994848 electrons
N(Total)           :       25.999999989695 electrons
E(X)               :      -34.663306048009 Eh       
E(C)               :       -0.954557314446 Eh       
E(XC)              :      -35.617863362455 Eh       
DFET-embed. en.    :        0.000000000000 Eh       

---------------
SCF CONVERGENCE
---------------

  Last Energy change         ...   -6.8326e-11  Tolerance :   1.0000e-09
  Last MAX-Density change    ...    8.8263e-06  Tolerance :   1.0000e-08
  Last RMS-Density change    ...    1.2218e-07  Tolerance :   1.0000e-09
  Last DIIS Error            ...    1.2561e-06  Tolerance :   1.0000e-08

             **** THE GBW FILE WAS UPDATED (nh2cl_pbe.gbw) ****
             **** DENSITY FILE WAS UPDATED (nh2cl_pbe.scfp.tmp) ****
             **** ENERGY FILE WAS UPDATED (nh2cl_pbe.en.tmp) ****
----------------------
UHF SPIN CONTAMINATION
----------------------

Warning: in a DFT calculation there is little theoretical justification to 
         calculate <S**2> as in Hartree-Fock theory. We will do it anyways
         but you should keep in mind that the values have only limited relevance

Expectation value of <S**2>     :     0.000000
Ideal value S*(S+1) for S=0.0   :     0.000000
Deviation                       :     0.000000

----------------
ORBITAL ENERGIES
----------------
                 SPIN UP ORBITALS
  NO   OCC          E(Eh)            E(eV) 
   0   1.0000    -100.667109     -2739.2913 
   1   1.0000     -14.038693      -382.0123 
   2   1.0000      -9.188888      -250.0424 
   3   1.0000      -7.014418      -190.8720 
   4   1.0000      -7.000526      -190.4940 
   5   1.0000      -7.000036      -190.4807 
   6   1.0000      -0.868536       -23.6341 
   7   1.0000      -0.693390       -18.8681 
   8   1.0000      -0.470302       -12.7976 
   9   1.0000      -0.423774       -11.5315 
  10   1.0000      -0.333236        -9.0678 
  11   1.0000      -0.275362        -7.4930 
  12   1.0000      -0.226525        -6.1641 
  13   0.0000      -0.075867        -2.0644 
  14   0.0000      -0.023052        -0.6273 
  15   0.0000       0.007667         0.2086 
  16   0.0000       0.016782         0.4567 
  17   0.0000       0.020798         0.5659 
  18   0.0000       0.037786         1.0282 
  19   0.0000       0.044868         1.2209 
  20   0.0000       0.046226         1.2579 
  21   0.0000       0.049566         1.3488 
  22   0.0000       0.050061         1.3622 
  23   0.0000       0.051455         1.4002 
  24   0.0000       0.065487         1.7820 
  25   0.0000       0.081510         2.2180 
  26   0.0000       0.092197         2.5088 
  27   0.0000       0.104445         2.8421 
  28   0.0000       0.106484         2.8976 
  29   0.0000       0.119541         3.2529 
  30   0.0000       0.126178         3.4335 
  31   0.0000       0.133344         3.6285 
  32   0.0000       0.138362         3.7650 
  33   0.0000       0.139125         3.7858 
  34   0.0000       0.143550         3.9062 
  35   0.0000       0.145516         3.9597 
  36   0.0000       0.148960         4.0534 
  37   0.0000       0.155913         4.2426 
  38   0.0000       0.159674         4.3450 
  39   0.0000       0.169221         4.6047 
  40   0.0000       0.185085         5.0364 
  41   0.0000       0.190408         5.1813 
  42   0.0000       0.208843         5.6829 
  43   0.0000       0.212794         5.7904 
  44   0.0000       0.215801         5.8722 
  45   0.0000       0.216503         5.8913 
  46   0.0000       0.224726         6.1151 
  47   0.0000       0.229963         6.2576 
  48   0.0000       0.232751         6.3335 
  49   0.0000       0.233603         6.3567 
  50   0.0000       0.240831         6.5534 
  51   0.0000       0.244059         6.6412 
  52   0.0000       0.249011         6.7759 
  53   0.0000       0.265720         7.2306 
  54   0.0000       0.267830         7.2880 
  55   0.0000       0.278034         7.5657 
  56   0.0000       0.289303         7.8723 
  57   0.0000       0.290577         7.9070 
  58   0.0000       0.299732         8.1561 
  59   0.0000       0.306753         8.3472 
  60   0.0000       0.320138         8.7114 
  61   0.0000       0.327676         8.9165 
  62   0.0000       0.334253         9.0955 
  63   0.0000       0.343328         9.3424 
  64   0.0000       0.343633         9.3507 
  65   0.0000       0.357159         9.7188 
  66   0.0000       0.365170         9.9368 
  67   0.0000       0.366426         9.9710 
  68   0.0000       0.372250        10.1294 
  69   0.0000       0.380070        10.3422 
  70   0.0000       0.385741        10.4965 
  71   0.0000       0.392607        10.6834 
  72   0.0000       0.402970        10.9654 
  73   0.0000       0.409336        11.1386 
  74   0.0000       0.413893        11.2626 
  75   0.0000       0.419216        11.4074 
  76   0.0000       0.421314        11.4645 
  77   0.0000       0.429091        11.6762 
  78   0.0000       0.443154        12.0588 
  79   0.0000       0.445368        12.1191 
  80   0.0000       0.448208        12.1964 
  81   0.0000       0.462131        12.5752 
  82   0.0000       0.463779        12.6201 
  83   0.0000       0.474074        12.9002 
  84   0.0000       0.484107        13.1732 
  85   0.0000       0.487438        13.2639 
  86   0.0000       0.490249        13.3404 
  87   0.0000       0.498850        13.5744 
  88   0.0000       0.504790        13.7360 
  89   0.0000       0.511795        13.9266 
  90   0.0000       0.512709        13.9515 
  91   0.0000       0.526067        14.3150 
  92   0.0000       0.528611        14.3842 
  93   0.0000       0.538912        14.6645 
  94   0.0000       0.547166        14.8892 
  95   0.0000       0.548806        14.9338 
  96   0.0000       0.558224        15.1901 
  97   0.0000       0.567386        15.4394 
  98   0.0000       0.581169        15.8144 
  99   0.0000       0.595269        16.1981 
 100   0.0000       0.605097        16.4655 
 101   0.0000       0.613119        16.6838 
 102   0.0000       0.628621        17.1056 
 103   0.0000       0.630829        17.1657 
 104   0.0000       0.642065        17.4715 
 105   0.0000       0.647690        17.6245 
 106   0.0000       0.656803        17.8725 
 107   0.0000       0.660748        17.9799 
 108   0.0000       0.667893        18.1743 
 109   0.0000       0.679956        18.5026 
 110   0.0000       0.686201        18.6725 
 111   0.0000       0.687720        18.7138 
 112   0.0000       0.690558        18.7910 
 113   0.0000       0.690870        18.7995 
 114   0.0000       0.710992        19.3471 
 115   0.0000       0.711480        19.3603 
 116   0.0000       0.726440        19.7674 
 117   0.0000       0.730947        19.8901 
 118   0.0000       0.747332        20.3359 
 119   0.0000       0.748938        20.3796 
 120   0.0000       0.758520        20.6404 
 121   0.0000       0.768370        20.9084 
 122   0.0000       0.769570        20.9411 
 123   0.0000       0.777394        21.1540 
 124   0.0000       0.785150        21.3650 
 125   0.0000       0.794655        21.6237 
 126   0.0000       0.802604        21.8400 
 127   0.0000       0.802822        21.8459 
 128   0.0000       0.808098        21.9895 
 129   0.0000       0.812159        22.1000 
 130   0.0000       0.813482        22.1360 
 131   0.0000       0.825646        22.4670 
 132   0.0000       0.830235        22.5919 
 133   0.0000       0.835310        22.7299 
 134   0.0000       0.840052        22.8590 
 135   0.0000       0.855265        23.2729 
 136   0.0000       0.866785        23.5864 
 137   0.0000       0.876261        23.8443 
 138   0.0000       0.879655        23.9366 
 139   0.0000       0.884928        24.0801 
 140   0.0000       0.893419        24.3112 
 141   0.0000       0.908860        24.7313 
 142   0.0000       0.914984        24.8980 
 143   0.0000       0.917079        24.9550 
 144   0.0000       0.923529        25.1305 
 145   0.0000       0.924755        25.1639 
 146   0.0000       0.942308        25.6415 
 147   0.0000       0.945263        25.7219 
 148   0.0000       0.964187        26.2369 
 149   0.0000       0.968365        26.3506 
 150   0.0000       0.971609        26.4388 
 151   0.0000       0.986221        26.8364 
 152   0.0000       0.999126        27.1876 
 153   0.0000       1.014288        27.6002 
 154   0.0000       1.018893        27.7255 
 155   0.0000       1.025191        27.8969 
 156   0.0000       1.033682        28.1279 
 157   0.0000       1.046547        28.4780 
 158   0.0000       1.049312        28.5532 
 159   0.0000       1.071707        29.1626 
 160   0.0000       1.087237        29.5852 
 161   0.0000       1.097420        29.8623 
 162   0.0000       1.104709        30.0607 
 163   0.0000       1.109559        30.1926 
 164   0.0000       1.124847        30.6086 
 165   0.0000       1.128302        30.7027 
 166   0.0000       1.129640        30.7391 
 167   0.0000       1.147123        31.2148 
 168   0.0000       1.152359        31.3573 
 169   0.0000       1.158408        31.5219 
 170   0.0000       1.173946        31.9447 
 171   0.0000       1.180591        32.1255 
 172   0.0000       1.183229        32.1973 
 173   0.0000       1.202304        32.7164 
 174   0.0000       1.221753        33.2456 
 175   0.0000       1.249462        33.9996 
 176   0.0000       1.252673        34.0870 
 177   0.0000       1.347469        36.6665 
 178   0.0000       1.363473        37.1020 
 179   0.0000       1.382076        37.6082 
 180   0.0000       1.409507        38.3546 
 181   0.0000       1.449861        39.4527 
 182   0.0000       1.468983        39.9731 
 183   0.0000       1.493545        40.6414 
 184   0.0000       1.530154        41.6376 
 185   0.0000       1.536850        41.8198 
 186   0.0000       1.569312        42.7032 
 187   0.0000       1.595905        43.4268 
 188   0.0000       1.596023        43.4300 
 189   0.0000       1.607194        43.7340 
 190   0.0000       1.621939        44.1352 
 191   0.0000       1.634126        44.4668 
 192   0.0000       1.639537        44.6141 
 193   0.0000       1.656948        45.0878 
 194   0.0000       1.686816        45.9006 
 195   0.0000       1.716010        46.6950 
 196   0.0000       1.736901        47.2635 
 197   0.0000       1.783214        48.5237 
 198   0.0000       1.796136        48.8753 
 199   0.0000       1.805681        49.1351 
 200   0.0000       1.835206        49.9385 
 201   0.0000       1.854527        50.4642 
 202   0.0000       1.870475        50.8982 
 203   0.0000       1.942849        52.8676 
 204   0.0000       1.944890        52.9231 
 205   0.0000       1.969634        53.5965 
 206   0.0000       1.979553        53.8664 
 207   0.0000       2.011155        54.7263 
 208   0.0000       2.042602        55.5820 
 209   0.0000       2.065659        56.2094 
 210   0.0000       2.171602        59.0923 
 211   0.0000       2.190104        59.5958 
 212   0.0000       2.271543        61.8118 
 213   0.0000       2.298367        62.5417 
 214   0.0000       2.375766        64.6479 
 215   0.0000       2.382333        64.8266 
 216   0.0000       2.400721        65.3269 
 217   0.0000       2.413014        65.6615 
 218   0.0000       2.426059        66.0164 
 219   0.0000       2.537018        69.0358 
 220   0.0000       2.554833        69.5206 
 221   0.0000       2.561813        69.7105 
 222   0.0000       2.582748        70.2801 
 223   0.0000       2.626852        71.4803 
 224   0.0000       2.681259        72.9608 
 225   0.0000       2.731159        74.3186 
 226   0.0000       2.874374        78.2157 
 227   0.0000       2.905612        79.0657 
 228   0.0000       2.920495        79.4707 
 229   0.0000       2.960923        80.5708 
 230   0.0000       2.972350        80.8818 
 231   0.0000       2.997507        81.5663 
 232   0.0000       3.029061        82.4249 
 233   0.0000       3.061714        83.3135 
 234   0.0000       3.101101        84.3852 
 235   0.0000       3.194768        86.9341 
 236   0.0000       3.204057        87.1868 
 237   0.0000       3.260789        88.7306 
 238   0.0000       3.304026        89.9071 
 239   0.0000       3.353060        91.2414 
 240   0.0000       3.381075        92.0037 
 241   0.0000       3.404276        92.6350 
 242   0.0000       3.419884        93.0598 
 243   0.0000       3.475471        94.5724 
 244   0.0000       3.547349        96.5283 
 245   0.0000       3.585281        97.5605 
 246   0.0000       3.625547        98.6561 
 247   0.0000       3.632287        98.8396 
 248   0.0000       3.666935        99.7824 
 249   0.0000       3.686765       100.3220 
 250   0.0000       3.708107       100.9027 
 251   0.0000       3.726863       101.4131 
 252   0.0000       3.760282       102.3225 
 253   0.0000       3.777086       102.7797 
 254   0.0000       3.804661       103.5301 
 255   0.0000       3.860733       105.0559 
 256   0.0000       3.903051       106.2074 
 257   0.0000       3.908035       106.3430 
 258   0.0000       3.940171       107.2175 
 259   0.0000       3.972773       108.1046 
 260   0.0000       4.038436       109.8914 
 261   0.0000       4.048016       110.1521 
 262   0.0000       4.080892       111.0467 
 263   0.0000       4.111231       111.8723 
 264   0.0000       4.112934       111.9186 
 265   0.0000       4.196912       114.2038 
 266   0.0000       4.280805       116.4866 
 267   0.0000       4.287096       116.6578 
 268   0.0000       4.299909       117.0065 
 269   0.0000       4.421743       120.3218 
 270   0.0000       4.440516       120.8326 
 271   0.0000       4.531415       123.3061 
 272   0.0000       4.667927       127.0207 
 273   0.0000       4.751918       129.3063 
 274   0.0000       4.787620       130.2778 
 275   0.0000       4.858345       132.2023 
 276   0.0000       4.871114       132.5497 
 277   0.0000       4.895106       133.2026 
 278   0.0000       4.945983       134.5870 
 279   0.0000       5.013397       136.4215 
 280   0.0000       5.028235       136.8252 
 281   0.0000       5.081848       138.2841 
 282   0.0000       5.217886       141.9859 
 283   0.0000       5.228355       142.2708 
 284   0.0000       5.322773       144.8400 
 285   0.0000       5.406581       147.1205 
 286   0.0000       5.492982       149.4716 
 287   0.0000       5.596728       152.2947 
 288   0.0000       5.639004       153.4451 
 289   0.0000       5.644323       153.5898 
 290   0.0000       5.669076       154.2634 
 291   0.0000       5.687244       154.7578 
 292   0.0000       5.689802       154.8274 
 293   0.0000       5.728277       155.8744 
 294   0.0000       5.728286       155.8746 
 295   0.0000       5.804419       157.9463 
 296   0.0000       5.837790       158.8543 
 297   0.0000       5.888287       160.2284 
 298   0.0000       5.923648       161.1907 
 299   0.0000       5.924537       161.2148 
 300   0.0000       6.022189       163.8721 
 301   0.0000       6.101638       166.0340 
 302   0.0000       6.131806       166.8549 
 303   0.0000       6.191976       168.4922 
 304   0.0000       6.200949       168.7364 
 305   0.0000       6.234943       169.6614 
 306   0.0000       6.281411       170.9259 
 307   0.0000       6.328116       172.1968 
 308   0.0000       6.389182       173.8585 
 309   0.0000       6.546191       178.1309 
 310   0.0000       6.605579       179.7469 
 311   0.0000       6.625640       180.2928 
 312   0.0000       6.691504       182.0851 
 313   0.0000       6.786269       184.6638 
 314   0.0000       6.922941       188.3828 
 315   0.0000       7.034946       191.4306 
 316   0.0000       7.252384       197.3474 
 317   0.0000       7.313057       198.9984 
 318   0.0000       7.329996       199.4593 
 319   0.0000       7.439925       202.4507 
 320   0.0000       7.631402       207.6610 
 321   0.0000       7.763385       211.2524 
 322   0.0000       7.779649       211.6950 
 323   0.0000       7.987982       217.3640 
 324   0.0000       8.053777       219.1544 
 325   0.0000       8.564955       233.0643 
 326   0.0000       8.584030       233.5833 
 327   0.0000       8.622552       234.6316 
 328   0.0000       8.650737       235.3985 
 329   0.0000       8.715369       237.1573 
 330   0.0000       8.951404       243.5801 
 331   0.0000       8.990476       244.6433 
 332   0.0000       9.109579       247.8842 
 333   0.0000       9.115798       248.0535 
 334   0.0000       9.133568       248.5370 
 335   0.0000       9.157685       249.1933 
 336   0.0000       9.193915       250.1791 
 337   0.0000       9.224548       251.0127 
 338   0.0000       9.411652       256.1041 
 339   0.0000       9.479537       257.9513 
 340   0.0000       9.552079       259.9253 
 341   0.0000       9.574898       260.5462 
 342   0.0000       9.674331       263.2519 
 343   0.0000       9.812409       267.0092 
 344   0.0000       9.888932       269.0915 
 345   0.0000       9.918774       269.9036 
 346   0.0000       9.976040       271.4618 
 347   0.0000      10.032550       272.9996 
 348   0.0000      10.049131       273.4508 
 349   0.0000      10.077844       274.2321 
 350   0.0000      10.244959       278.7795 
 351   0.0000      10.366928       282.0985 
 352   0.0000      11.272971       306.7531 
 353   0.0000      11.376801       309.5785 
 354   0.0000      11.444103       311.4099 
 355   0.0000      11.473743       312.2164 
 356   0.0000      11.538534       313.9795 
 357   0.0000      11.558335       314.5183 
 358   0.0000      11.652662       317.0851 
 359   0.0000      11.703344       318.4642 
 360   0.0000      11.748249       319.6861 
 361   0.0000      11.762247       320.0670 
 362   0.0000      11.888382       323.4993 
 363   0.0000      11.917846       324.3011 
 364   0.0000      11.958825       325.4162 
 365   0.0000      11.988032       326.2109 
 366   0.0000      12.318759       335.2105 
 367   0.0000      12.447222       338.7061 
 368   0.0000      12.531782       341.0071 
 369   0.0000      12.570505       342.0608 
 370   0.0000      12.647163       344.1468 
 371   0.0000      12.706944       345.7735 
 372   0.0000      12.811174       348.6098 
 373   0.0000      12.845036       349.5312 
 374   0.0000      12.918683       351.5352 
 375   0.0000      12.937728       352.0535 
 376   0.0000      12.946719       352.2981 
 377   0.0000      12.991641       353.5205 
 378   0.0000      12.999620       353.7377 
 379   0.0000      13.034244       354.6798 
 380   0.0000      13.110481       356.7543 
 381   0.0000      13.174580       358.4986 
 382   0.0000      13.496524       367.2591 
 383   0.0000      13.606701       370.2572 
 384   0.0000      13.722718       373.4141 
 385   0.0000      13.988965       380.6591 
 386   0.0000      14.083656       383.2358 
 387   0.0000      14.241035       387.5183 
 388   0.0000      14.247883       387.7046 
 389   0.0000      15.039117       409.2352 
 390   0.0000      15.178705       413.0336 
 391   0.0000      15.187873       413.2830 
 392   0.0000      15.312975       416.6872 
 393   0.0000      15.457223       420.6124 
 394   0.0000      15.492375       421.5690 
 395   0.0000      15.560031       423.4100 
 396   0.0000      15.722933       427.8428 
 397   0.0000      15.761996       428.9057 
 398   0.0000      15.927527       433.4100 
 399   0.0000      16.148631       439.4266 
 400   0.0000      16.287987       443.2187 
 401   0.0000      16.514668       449.3870 
 402   0.0000      16.672537       453.6828 
 403   0.0000      16.706358       454.6031 
 404   0.0000      16.743970       455.6266 
 405   0.0000      16.747430       455.7207 
 406   0.0000      16.968384       461.7332 
 407   0.0000      17.118828       465.8270 
 408   0.0000      17.196417       467.9383 
 409   0.0000      17.258711       469.6334 
 410   0.0000      17.264306       469.7857 
 411   0.0000      17.375231       472.8041 
 412   0.0000      17.565658       477.9859 
 413   0.0000      17.687376       481.2980 
 414   0.0000      17.719289       482.1664 
 415   0.0000      17.721369       482.2230 
 416   0.0000      17.754933       483.1363 
 417   0.0000      17.834614       485.3045 
 418   0.0000      17.870136       486.2711 
 419   0.0000      17.987384       489.4616 
 420   0.0000      18.437991       501.7232 
 421   0.0000      18.547753       504.7100 
 422   0.0000      18.918305       514.7933 
 423   0.0000      19.105104       519.8763 
 424   0.0000      19.535557       531.5895 
 425   0.0000      19.626133       534.0542 
 426   0.0000      20.697548       563.2089 
 427   0.0000      20.821377       566.5785 
 428   0.0000      20.838395       567.0416 
 429   0.0000      20.857391       567.5585 
 430   0.0000      21.184897       576.4704 
 431   0.0000      21.982311       598.1691 
 432   0.0000      23.560498       641.1137 
 433   0.0000      23.595074       642.0546 
 434   0.0000      23.654360       643.6679 
 435   0.0000      23.760146       646.5464 
 436   0.0000      24.267370       660.3487 
 437   0.0000      25.539866       694.9751 
 438   0.0000      25.887865       704.4446 
 439   0.0000      26.927578       732.7366 
 440   0.0000      27.993823       761.7506 
 441   0.0000      28.709665       781.2297 
 442   0.0000      40.949473      1114.2918 
 443   0.0000      41.384068      1126.1178 
 444   0.0000      41.486944      1128.9171 
 445   0.0000      48.048077      1307.4546 
 446   0.0000      48.134195      1309.7980 
 447   0.0000      48.233233      1312.4930 
 448   0.0000      48.620246      1323.0242 
 449   0.0000      49.283408      1341.0697 
 450   0.0000      65.857860      1792.0835 
 451   0.0000      65.859096      1792.1171 
 452   0.0000      65.904259      1793.3461 
 453   0.0000      65.937103      1794.2398 
 454   0.0000      66.236277      1802.3807 
 455   0.0000      91.027291      2476.9785 
 456   0.0000      91.063415      2477.9615 
 457   0.0000      91.115966      2479.3915 
 458   0.0000      91.171049      2480.8904 
 459   0.0000      92.833039      2526.1154 
 460   0.0000      92.943535      2529.1222 
 461   0.0000     105.619907      2874.0638 

                 SPIN DOWN ORBITALS
  NO   OCC          E(Eh)            E(eV) 
   0   1.0000    -100.667109     -2739.2913 
   1   1.0000     -14.038693      -382.0123 
   2   1.0000      -9.188888      -250.0424 
   3   1.0000      -7.014418      -190.8720 
   4   1.0000      -7.000526      -190.4940 
   5   1.0000      -7.000036      -190.4807 
   6   1.0000      -0.868536       -23.6341 
   7   1.0000      -0.693390       -18.8681 
   8   1.0000      -0.470302       -12.7976 
   9   1.0000      -0.423774       -11.5315 
  10   1.0000      -0.333236        -9.0678 
  11   1.0000      -0.275362        -7.4930 
  12   1.0000      -0.226525        -6.1641 
  13   0.0000      -0.075867        -2.0644 
  14   0.0000      -0.023052        -0.6273 
  15   0.0000       0.007667         0.2086 
  16   0.0000       0.016782         0.4567 
  17   0.0000       0.020798         0.5659 
  18   0.0000       0.037786         1.0282 
  19   0.0000       0.044868         1.2209 
  20   0.0000       0.046226         1.2579 
  21   0.0000       0.049566         1.3488 
  22   0.0000       0.050061         1.3622 
  23   0.0000       0.051455         1.4002 
  24   0.0000       0.065487         1.7820 
  25   0.0000       0.081510         2.2180 
  26   0.0000       0.092197         2.5088 
  27   0.0000       0.104445         2.8421 
  28   0.0000       0.106484         2.8976 
  29   0.0000       0.119541         3.2529 
  30   0.0000       0.126178         3.4335 
  31   0.0000       0.133344         3.6285 
  32   0.0000       0.138362         3.7650 
  33   0.0000       0.139125         3.7858 
  34   0.0000       0.143550         3.9062 
  35   0.0000       0.145516         3.9597 
  36   0.0000       0.148960         4.0534 
  37   0.0000       0.155913         4.2426 
  38   0.0000       0.159674         4.3450 
  39   0.0000       0.169221         4.6047 
  40   0.0000       0.185085         5.0364 
  41   0.0000       0.190408         5.1813 
  42   0.0000       0.208843         5.6829 
  43   0.0000       0.212794         5.7904 
  44   0.0000       0.215801         5.8722 
  45   0.0000       0.216503         5.8913 
  46   0.0000       0.224726         6.1151 
  47   0.0000       0.229963         6.2576 
  48   0.0000       0.232751         6.3335 
  49   0.0000       0.233603         6.3567 
  50   0.0000       0.240831         6.5534 
  51   0.0000       0.244059         6.6412 
  52   0.0000       0.249011         6.7759 
  53   0.0000       0.265720         7.2306 
  54   0.0000       0.267830         7.2880 
  55   0.0000       0.278034         7.5657 
  56   0.0000       0.289303         7.8723 
  57   0.0000       0.290577         7.9070 
  58   0.0000       0.299732         8.1561 
  59   0.0000       0.306753         8.3472 
  60   0.0000       0.320138         8.7114 
  61   0.0000       0.327676         8.9165 
  62   0.0000       0.334253         9.0955 
  63   0.0000       0.343328         9.3424 
  64   0.0000       0.343633         9.3507 
  65   0.0000       0.357159         9.7188 
  66   0.0000       0.365170         9.9368 
  67   0.0000       0.366426         9.9710 
  68   0.0000       0.372250        10.1294 
  69   0.0000       0.380070        10.3422 
  70   0.0000       0.385741        10.4965 
  71   0.0000       0.392607        10.6834 
  72   0.0000       0.402970        10.9654 
  73   0.0000       0.409336        11.1386 
  74   0.0000       0.413893        11.2626 
  75   0.0000       0.419216        11.4074 
  76   0.0000       0.421314        11.4645 
  77   0.0000       0.429091        11.6762 
  78   0.0000       0.443154        12.0588 
  79   0.0000       0.445368        12.1191 
  80   0.0000       0.448208        12.1964 
  81   0.0000       0.462131        12.5752 
  82   0.0000       0.463779        12.6201 
  83   0.0000       0.474074        12.9002 
  84   0.0000       0.484107        13.1732 
  85   0.0000       0.487438        13.2639 
  86   0.0000       0.490249        13.3404 
  87   0.0000       0.498850        13.5744 
  88   0.0000       0.504790        13.7360 
  89   0.0000       0.511795        13.9266 
  90   0.0000       0.512709        13.9515 
  91   0.0000       0.526067        14.3150 
  92   0.0000       0.528611        14.3842 
  93   0.0000       0.538912        14.6645 
  94   0.0000       0.547166        14.8892 
  95   0.0000       0.548806        14.9338 
  96   0.0000       0.558224        15.1901 
  97   0.0000       0.567386        15.4394 
  98   0.0000       0.581169        15.8144 
  99   0.0000       0.595269        16.1981 
 100   0.0000       0.605097        16.4655 
 101   0.0000       0.613119        16.6838 
 102   0.0000       0.628621        17.1056 
 103   0.0000       0.630829        17.1657 
 104   0.0000       0.642065        17.4715 
 105   0.0000       0.647690        17.6245 
 106   0.0000       0.656803        17.8725 
 107   0.0000       0.660748        17.9799 
 108   0.0000       0.667893        18.1743 
 109   0.0000       0.679956        18.5026 
 110   0.0000       0.686201        18.6725 
 111   0.0000       0.687720        18.7138 
 112   0.0000       0.690558        18.7910 
 113   0.0000       0.690870        18.7995 
 114   0.0000       0.710992        19.3471 
 115   0.0000       0.711480        19.3603 
 116   0.0000       0.726440        19.7674 
 117   0.0000       0.730947        19.8901 
 118   0.0000       0.747332        20.3359 
 119   0.0000       0.748938        20.3796 
 120   0.0000       0.758520        20.6404 
 121   0.0000       0.768370        20.9084 
 122   0.0000       0.769570        20.9411 
 123   0.0000       0.777394        21.1540 
 124   0.0000       0.785150        21.3650 
 125   0.0000       0.794655        21.6237 
 126   0.0000       0.802604        21.8400 
 127   0.0000       0.802822        21.8459 
 128   0.0000       0.808098        21.9895 
 129   0.0000       0.812159        22.1000 
 130   0.0000       0.813482        22.1360 
 131   0.0000       0.825646        22.4670 
 132   0.0000       0.830235        22.5919 
 133   0.0000       0.835310        22.7299 
 134   0.0000       0.840052        22.8590 
 135   0.0000       0.855265        23.2729 
 136   0.0000       0.866785        23.5864 
 137   0.0000       0.876261        23.8443 
 138   0.0000       0.879655        23.9366 
 139   0.0000       0.884928        24.0801 
 140   0.0000       0.893419        24.3112 
 141   0.0000       0.908860        24.7313 
 142   0.0000       0.914984        24.8980 
 143   0.0000       0.917079        24.9550 
 144   0.0000       0.923529        25.1305 
 145   0.0000       0.924755        25.1639 
 146   0.0000       0.942308        25.6415 
 147   0.0000       0.945263        25.7219 
 148   0.0000       0.964187        26.2369 
 149   0.0000       0.968365        26.3506 
 150   0.0000       0.971609        26.4388 
 151   0.0000       0.986221        26.8364 
 152   0.0000       0.999126        27.1876 
 153   0.0000       1.014288        27.6002 
 154   0.0000       1.018893        27.7255 
 155   0.0000       1.025191        27.8969 
 156   0.0000       1.033682        28.1279 
 157   0.0000       1.046547        28.4780 
 158   0.0000       1.049312        28.5532 
 159   0.0000       1.071707        29.1626 
 160   0.0000       1.087237        29.5852 
 161   0.0000       1.097420        29.8623 
 162   0.0000       1.104709        30.0607 
 163   0.0000       1.109559        30.1926 
 164   0.0000       1.124847        30.6086 
 165   0.0000       1.128302        30.7027 
 166   0.0000       1.129640        30.7391 
 167   0.0000       1.147123        31.2148 
 168   0.0000       1.152359        31.3573 
 169   0.0000       1.158408        31.5219 
 170   0.0000       1.173946        31.9447 
 171   0.0000       1.180591        32.1255 
 172   0.0000       1.183229        32.1973 
 173   0.0000       1.202304        32.7164 
 174   0.0000       1.221753        33.2456 
 175   0.0000       1.249462        33.9996 
 176   0.0000       1.252673        34.0870 
 177   0.0000       1.347469        36.6665 
 178   0.0000       1.363473        37.1020 
 179   0.0000       1.382076        37.6082 
 180   0.0000       1.409507        38.3546 
 181   0.0000       1.449861        39.4527 
 182   0.0000       1.468983        39.9731 
 183   0.0000       1.493545        40.6414 
 184   0.0000       1.530154        41.6376 
 185   0.0000       1.536850        41.8198 
 186   0.0000       1.569312        42.7032 
 187   0.0000       1.595905        43.4268 
 188   0.0000       1.596023        43.4300 
 189   0.0000       1.607194        43.7340 
 190   0.0000       1.621939        44.1352 
 191   0.0000       1.634126        44.4668 
 192   0.0000       1.639537        44.6141 
 193   0.0000       1.656948        45.0878 
 194   0.0000       1.686816        45.9006 
 195   0.0000       1.716010        46.6950 
 196   0.0000       1.736901        47.2635 
 197   0.0000       1.783214        48.5237 
 198   0.0000       1.796136        48.8753 
 199   0.0000       1.805681        49.1351 
 200   0.0000       1.835206        49.9385 
 201   0.0000       1.854527        50.4642 
 202   0.0000       1.870475        50.8982 
 203   0.0000       1.942849        52.8676 
 204   0.0000       1.944890        52.9231 
 205   0.0000       1.969634        53.5965 
 206   0.0000       1.979553        53.8664 
 207   0.0000       2.011155        54.7263 
 208   0.0000       2.042602        55.5820 
 209   0.0000       2.065659        56.2094 
 210   0.0000       2.171602        59.0923 
 211   0.0000       2.190104        59.5958 
 212   0.0000       2.271543        61.8118 
 213   0.0000       2.298367        62.5417 
 214   0.0000       2.375766        64.6479 
 215   0.0000       2.382333        64.8266 
 216   0.0000       2.400721        65.3269 
 217   0.0000       2.413014        65.6615 
 218   0.0000       2.426059        66.0164 
 219   0.0000       2.537018        69.0358 
 220   0.0000       2.554833        69.5206 
 221   0.0000       2.561813        69.7105 
 222   0.0000       2.582748        70.2801 
 223   0.0000       2.626852        71.4803 
 224   0.0000       2.681259        72.9608 
 225   0.0000       2.731159        74.3186 
 226   0.0000       2.874374        78.2157 
 227   0.0000       2.905612        79.0657 
 228   0.0000       2.920495        79.4707 
 229   0.0000       2.960923        80.5708 
 230   0.0000       2.972350        80.8818 
 231   0.0000       2.997507        81.5663 
 232   0.0000       3.029061        82.4249 
 233   0.0000       3.061714        83.3135 
 234   0.0000       3.101101        84.3852 
 235   0.0000       3.194768        86.9341 
 236   0.0000       3.204057        87.1868 
 237   0.0000       3.260789        88.7306 
 238   0.0000       3.304026        89.9071 
 239   0.0000       3.353060        91.2414 
 240   0.0000       3.381075        92.0037 
 241   0.0000       3.404276        92.6350 
 242   0.0000       3.419884        93.0598 
 243   0.0000       3.475471        94.5724 
 244   0.0000       3.547349        96.5283 
 245   0.0000       3.585281        97.5605 
 246   0.0000       3.625547        98.6561 
 247   0.0000       3.632287        98.8396 
 248   0.0000       3.666935        99.7824 
 249   0.0000       3.686765       100.3220 
 250   0.0000       3.708107       100.9027 
 251   0.0000       3.726863       101.4131 
 252   0.0000       3.760282       102.3225 
 253   0.0000       3.777086       102.7797 
 254   0.0000       3.804661       103.5301 
 255   0.0000       3.860733       105.0559 
 256   0.0000       3.903051       106.2074 
 257   0.0000       3.908035       106.3430 
 258   0.0000       3.940171       107.2175 
 259   0.0000       3.972773       108.1046 
 260   0.0000       4.038436       109.8914 
 261   0.0000       4.048016       110.1521 
 262   0.0000       4.080892       111.0467 
 263   0.0000       4.111231       111.8723 
 264   0.0000       4.112934       111.9186 
 265   0.0000       4.196912       114.2038 
 266   0.0000       4.280805       116.4866 
 267   0.0000       4.287096       116.6578 
 268   0.0000       4.299909       117.0065 
 269   0.0000       4.421743       120.3218 
 270   0.0000       4.440516       120.8326 
 271   0.0000       4.531415       123.3061 
 272   0.0000       4.667927       127.0207 
 273   0.0000       4.751918       129.3063 
 274   0.0000       4.787620       130.2778 
 275   0.0000       4.858345       132.2023 
 276   0.0000       4.871114       132.5497 
 277   0.0000       4.895106       133.2026 
 278   0.0000       4.945983       134.5870 
 279   0.0000       5.013397       136.4215 
 280   0.0000       5.028235       136.8252 
 281   0.0000       5.081848       138.2841 
 282   0.0000       5.217886       141.9859 
 283   0.0000       5.228355       142.2708 
 284   0.0000       5.322773       144.8400 
 285   0.0000       5.406581       147.1205 
 286   0.0000       5.492982       149.4716 
 287   0.0000       5.596728       152.2947 
 288   0.0000       5.639004       153.4451 
 289   0.0000       5.644323       153.5898 
 290   0.0000       5.669076       154.2634 
 291   0.0000       5.687244       154.7578 
 292   0.0000       5.689802       154.8274 
 293   0.0000       5.728277       155.8744 
 294   0.0000       5.728286       155.8746 
 295   0.0000       5.804419       157.9463 
 296   0.0000       5.837790       158.8543 
 297   0.0000       5.888287       160.2284 
 298   0.0000       5.923648       161.1907 
 299   0.0000       5.924537       161.2148 
 300   0.0000       6.022189       163.8721 
 301   0.0000       6.101638       166.0340 
 302   0.0000       6.131806       166.8549 
 303   0.0000       6.191976       168.4922 
 304   0.0000       6.200949       168.7364 
 305   0.0000       6.234943       169.6614 
 306   0.0000       6.281411       170.9259 
 307   0.0000       6.328116       172.1968 
 308   0.0000       6.389182       173.8585 
 309   0.0000       6.546191       178.1309 
 310   0.0000       6.605579       179.7469 
 311   0.0000       6.625640       180.2928 
 312   0.0000       6.691504       182.0851 
 313   0.0000       6.786269       184.6638 
 314   0.0000       6.922941       188.3828 
 315   0.0000       7.034946       191.4306 
 316   0.0000       7.252384       197.3474 
 317   0.0000       7.313057       198.9984 
 318   0.0000       7.329996       199.4593 
 319   0.0000       7.439925       202.4507 
 320   0.0000       7.631402       207.6610 
 321   0.0000       7.763385       211.2524 
 322   0.0000       7.779649       211.6950 
 323   0.0000       7.987982       217.3640 
 324   0.0000       8.053777       219.1544 
 325   0.0000       8.564955       233.0643 
 326   0.0000       8.584030       233.5833 
 327   0.0000       8.622552       234.6316 
 328   0.0000       8.650737       235.3985 
 329   0.0000       8.715369       237.1573 
 330   0.0000       8.951404       243.5801 
 331   0.0000       8.990476       244.6433 
 332   0.0000       9.109579       247.8842 
 333   0.0000       9.115798       248.0535 
 334   0.0000       9.133568       248.5370 
 335   0.0000       9.157685       249.1933 
 336   0.0000       9.193915       250.1791 
 337   0.0000       9.224548       251.0127 
 338   0.0000       9.411652       256.1041 
 339   0.0000       9.479537       257.9513 
 340   0.0000       9.552079       259.9253 
 341   0.0000       9.574898       260.5462 
 342   0.0000       9.674331       263.2519 
 343   0.0000       9.812409       267.0092 
 344   0.0000       9.888932       269.0915 
 345   0.0000       9.918774       269.9036 
 346   0.0000       9.976040       271.4618 
 347   0.0000      10.032550       272.9996 
 348   0.0000      10.049131       273.4508 
 349   0.0000      10.077844       274.2321 
 350   0.0000      10.244959       278.7795 
 351   0.0000      10.366928       282.0985 
 352   0.0000      11.272971       306.7531 
 353   0.0000      11.376801       309.5785 
 354   0.0000      11.444103       311.4099 
 355   0.0000      11.473743       312.2164 
 356   0.0000      11.538534       313.9795 
 357   0.0000      11.558335       314.5183 
 358   0.0000      11.652662       317.0851 
 359   0.0000      11.703344       318.4642 
 360   0.0000      11.748249       319.6861 
 361   0.0000      11.762247       320.0670 
 362   0.0000      11.888382       323.4993 
 363   0.0000      11.917846       324.3011 
 364   0.0000      11.958825       325.4162 
 365   0.0000      11.988032       326.2109 
 366   0.0000      12.318759       335.2105 
 367   0.0000      12.447222       338.7061 
 368   0.0000      12.531782       341.0071 
 369   0.0000      12.570505       342.0608 
 370   0.0000      12.647163       344.1468 
 371   0.0000      12.706944       345.7735 
 372   0.0000      12.811174       348.6098 
 373   0.0000      12.845036       349.5312 
 374   0.0000      12.918683       351.5352 
 375   0.0000      12.937728       352.0535 
 376   0.0000      12.946719       352.2981 
 377   0.0000      12.991641       353.5205 
 378   0.0000      12.999620       353.7377 
 379   0.0000      13.034244       354.6798 
 380   0.0000      13.110481       356.7543 
 381   0.0000      13.174580       358.4986 
 382   0.0000      13.496524       367.2591 
 383   0.0000      13.606701       370.2572 
 384   0.0000      13.722718       373.4141 
 385   0.0000      13.988965       380.6591 
 386   0.0000      14.083656       383.2358 
 387   0.0000      14.241035       387.5183 
 388   0.0000      14.247883       387.7046 
 389   0.0000      15.039117       409.2352 
 390   0.0000      15.178705       413.0336 
 391   0.0000      15.187873       413.2830 
 392   0.0000      15.312975       416.6872 
 393   0.0000      15.457223       420.6124 
 394   0.0000      15.492375       421.5690 
 395   0.0000      15.560031       423.4100 
 396   0.0000      15.722933       427.8428 
 397   0.0000      15.761996       428.9057 
 398   0.0000      15.927527       433.4100 
 399   0.0000      16.148631       439.4266 
 400   0.0000      16.287987       443.2187 
 401   0.0000      16.514668       449.3870 
 402   0.0000      16.672537       453.6828 
 403   0.0000      16.706358       454.6031 
 404   0.0000      16.743970       455.6266 
 405   0.0000      16.747430       455.7207 
 406   0.0000      16.968384       461.7332 
 407   0.0000      17.118828       465.8270 
 408   0.0000      17.196417       467.9383 
 409   0.0000      17.258711       469.6334 
 410   0.0000      17.264306       469.7857 
 411   0.0000      17.375231       472.8041 
 412   0.0000      17.565658       477.9859 
 413   0.0000      17.687376       481.2980 
 414   0.0000      17.719289       482.1664 
 415   0.0000      17.721369       482.2230 
 416   0.0000      17.754933       483.1363 
 417   0.0000      17.834614       485.3045 
 418   0.0000      17.870136       486.2711 
 419   0.0000      17.987384       489.4616 
 420   0.0000      18.437991       501.7232 
 421   0.0000      18.547753       504.7100 
 422   0.0000      18.918305       514.7933 
 423   0.0000      19.105104       519.8763 
 424   0.0000      19.535557       531.5895 
 425   0.0000      19.626133       534.0542 
 426   0.0000      20.697548       563.2089 
 427   0.0000      20.821377       566.5785 
 428   0.0000      20.838395       567.0416 
 429   0.0000      20.857391       567.5585 
 430   0.0000      21.184897       576.4704 
 431   0.0000      21.982311       598.1691 
 432   0.0000      23.560498       641.1137 
 433   0.0000      23.595074       642.0546 
 434   0.0000      23.654360       643.6679 
 435   0.0000      23.760146       646.5464 
 436   0.0000      24.267370       660.3487 
 437   0.0000      25.539866       694.9751 
 438   0.0000      25.887865       704.4446 
 439   0.0000      26.927578       732.7366 
 440   0.0000      27.993823       761.7506 
 441   0.0000      28.709665       781.2297 
 442   0.0000      40.949473      1114.2918 
 443   0.0000      41.384068      1126.1178 
 444   0.0000      41.486944      1128.9171 
 445   0.0000      48.048077      1307.4546 
 446   0.0000      48.134195      1309.7980 
 447   0.0000      48.233233      1312.4930 
 448   0.0000      48.620246      1323.0242 
 449   0.0000      49.283408      1341.0697 
 450   0.0000      65.857860      1792.0835 
 451   0.0000      65.859096      1792.1171 
 452   0.0000      65.904259      1793.3461 
 453   0.0000      65.937103      1794.2398 
 454   0.0000      66.236277      1802.3807 
 455   0.0000      91.027291      2476.9785 
 456   0.0000      91.063415      2477.9615 
 457   0.0000      91.115966      2479.3915 
 458   0.0000      91.171049      2480.8904 
 459   0.0000      92.833039      2526.1154 
 460   0.0000      92.943535      2529.1222 
 461   0.0000     105.619907      2874.0638 

                    ********************************
                    * MULLIKEN POPULATION ANALYSIS *
                    ********************************

--------------------------------------------
MULLIKEN ATOMIC CHARGES AND SPIN POPULATIONS
--------------------------------------------
   0 Cl:   -0.121985   -0.000000
   1 N :   -0.185313    0.000000
   2 H :    0.153648   -0.000000
   3 H :    0.153650    0.000000
Sum of atomic charges         :    0.0000000
Sum of atomic spin populations:   -0.0000000

-----------------------------------------------------
MULLIKEN REDUCED ORBITAL CHARGES AND SPIN POPULATIONS
-----------------------------------------------------
CHARGE
  0 Cls       :     6.002570  s :     6.002570
      pz      :     3.077470  p :    10.972665
      px      :     3.946101
      py      :     3.949093
      dz2     :     0.039240  d :     0.123071
      dxz     :     0.037787
      dyz     :     0.045623
      dx2y2   :     0.000309
      dxy     :     0.000112
      f0      :     0.004974  f :     0.021941
      f+1     :     0.008110
      f-1     :     0.008501
      f+2     :     0.000330
      f-2     :     0.000006
      f+3     :     0.000016
      f-3     :     0.000004
      g0      :     0.000179  g :     0.001975
      g+1     :     0.000853
      g-1     :     0.000806
      g+2     :     0.000131
      g-2     :    -0.000017
      g+3     :     0.000019
      g-3     :     0.000002
      g+4     :     0.000001
      g-4     :     0.000001
      h0      :    -0.000023  h :    -0.000236
      h+1     :    -0.000107
      h-1     :    -0.000116
      h+2     :     0.000010
      h-2     :    -0.000007
      h+3     :     0.000007
      h-3     :     0.000001
      h+4     :    -0.000000
      h-4     :     0.000000
      h+5     :     0.000000
      h-5     :    -0.000000
  1 N s       :     3.606080  s :     3.606080
      pz      :     0.899454  p :     3.485285
      px      :     1.230918
      py      :     1.354913
      dz2     :     0.000015  d :     0.072055
      dxz     :     0.027216
      dyz     :     0.029326
      dx2y2   :     0.012372
      dxy     :     0.003125
      f0      :     0.002461  f :     0.019800
      f+1     :     0.009469
      f-1     :     0.006956
      f+2     :     0.000044
      f-2     :     0.000066
      f+3     :     0.000703
      f-3     :     0.000099
      g0      :     0.001200  g :     0.001865
      g+1     :     0.000703
      g-1     :    -0.000186
      g+2     :     0.000002
      g-2     :     0.000006
      g+3     :     0.000026
      g-3     :     0.000004
      g+4     :     0.000063
      g-4     :     0.000047
      h0      :     0.000222  h :     0.000229
      h+1     :     0.000043
      h-1     :    -0.000049
      h+2     :     0.000005
      h-2     :     0.000002
      h+3     :    -0.000001
      h-3     :     0.000000
      h+4     :     0.000002
      h-4     :     0.000001
      h+5     :     0.000003
      h-5     :     0.000001
  2 H s       :     0.730980  s :     0.730980
      pz      :     0.033650  p :     0.086495
      px      :     0.019209
      py      :     0.033636
      dz2     :     0.007787  d :     0.019817
      dxz     :     0.008587
      dyz     :    -0.000635
      dx2y2   :     0.001715
      dxy     :     0.002363
      f0      :     0.005226  f :     0.007554
      f+1     :     0.000371
      f-1     :    -0.000725
      f+2     :     0.001859
      f-2     :     0.000797
      f+3     :    -0.000537
      f-3     :     0.000563
      g0      :     0.000662  g :     0.001506
      g+1     :     0.000161
      g-1     :     0.000005
      g+2     :     0.000047
      g-2     :     0.000325
      g+3     :     0.000196
      g-3     :     0.000105
      g+4     :    -0.000093
      g-4     :     0.000098
  3 H s       :     0.730980  s :     0.730980
      pz      :     0.033651  p :     0.086495
      px      :     0.031061
      py      :     0.021782
      dz2     :     0.007787  d :     0.019817
      dxz     :     0.000419
      dyz     :     0.007533
      dx2y2   :     0.000245
      dxy     :     0.003833
      f0      :     0.005225  f :     0.007553
      f+1     :    -0.000361
      f-1     :     0.000006
      f+2     :     0.001999
      f-2     :     0.000657
      f+3     :     0.000420
      f-3     :    -0.000394
      g0      :     0.000662  g :     0.001506
      g+1     :    -0.000006
      g-1     :     0.000172
      g+2     :     0.000221
      g-2     :     0.000151
      g+3     :     0.000101
      g-3     :     0.000200
      g+4     :     0.000078
      g-4     :    -0.000073

SPIN
  0 Cls       :    -0.000000  s :    -0.000000
      pz      :    -0.000000  p :    -0.000000
      px      :    -0.000000
      py      :     0.000000
      dz2     :    -0.000000  d :    -0.000000
      dxz     :    -0.000000
      dyz     :     0.000000
      dx2y2   :    -0.000000
      dxy     :    -0.000000
      f0      :     0.000000  f :     0.000000
      f+1     :    -0.000000
      f-1     :     0.000000
      f+2     :    -0.000000
      f-2     :    -0.000000
      f+3     :    -0.000000
      f-3     :    -0.000000
      g0      :     0.000000  g :     0.000000
      g+1     :     0.000000
      g-1     :     0.000000
      g+2     :    -0.000000
      g-2     :    -0.000000
      g+3     :    -0.000000
      g-3     :    -0.000000
      g+4     :    -0.000000
      g-4     :    -0.000000
      h0      :     0.000000  h :     0.000000
      h+1     :     0.000000
      h-1     :     0.000000
      h+2     :    -0.000000
      h-2     :    -0.000000
      h+3     :     0.000000
      h-3     :    -0.000000
      h+4     :    -0.000000
      h-4     :    -0.000000
      h+5     :     0.000000
      h-5     :    -0.000000
  1 N s       :     0.000000  s :     0.000000
      pz      :     0.000000  p :    -0.000000
      px      :    -0.000000
      py      :    -0.000000
      dz2     :    -0.000000  d :    -0.000000
      dxz     :     0.000000
      dyz     :    -0.000000
      dx2y2   :    -0.000000
      dxy     :    -0.000000
      f0      :    -0.000000  f :    -0.000000
      f+1     :     0.000000
      f-1     :    -0.000000
      f+2     :    -0.000000
      f-2     :     0.000000
      f+3     :     0.000000
      f-3     :     0.000000
      g0      :    -0.000000  g :     0.000000
      g+1     :     0.000000
      g-1     :    -0.000000
      g+2     :    -0.000000
      g-2     :    -0.000000
      g+3     :    -0.000000
      g-3     :    -0.000000
      g+4     :    -0.000000
      g-4     :     0.000000
      h0      :    -0.000000  h :    -0.000000
      h+1     :    -0.000000
      h-1     :    -0.000000
      h+2     :     0.000000
      h-2     :    -0.000000
      h+3     :     0.000000
      h-3     :     0.000000
      h+4     :    -0.000000
      h-4     :     0.000000
      h+5     :     0.000000
      h-5     :    -0.000000
  2 H s       :    -0.000000  s :    -0.000000
      pz      :    -0.000000  p :    -0.000000
      px      :     0.000000
      py      :    -0.000000
      dz2     :    -0.000000  d :    -0.000000
      dxz     :     0.000000
      dyz     :     0.000000
      dx2y2   :    -0.000000
      dxy     :    -0.000000
      f0      :     0.000000  f :    -0.000000
      f+1     :    -0.000000
      f-1     :    -0.000000
      f+2     :    -0.000000
      f-2     :     0.000000
      f+3     :     0.000000
      f-3     :    -0.000000
      g0      :     0.000000  g :    -0.000000
      g+1     :    -0.000000
      g-1     :    -0.000000
      g+2     :    -0.000000
      g-2     :    -0.000000
      g+3     :    -0.000000
      g-3     :     0.000000
      g+4     :     0.000000
      g-4     :    -0.000000
  3 H s       :     0.000000  s :     0.000000
      pz      :    -0.000000  p :     0.000000
      px      :     0.000000
      py      :     0.000000
      dz2     :    -0.000000  d :     0.000000
      dxz     :     0.000000
      dyz     :     0.000000
      dx2y2   :    -0.000000
      dxy     :     0.000000
      f0      :     0.000000  f :     0.000000
      f+1     :    -0.000000
      f-1     :    -0.000000
      f+2     :     0.000000
      f-2     :     0.000000
      f+3     :    -0.000000
      f-3     :    -0.000000
      g0      :     0.000000  g :     0.000000
      g+1     :    -0.000000
      g-1     :    -0.000000
      g+2     :    -0.000000
      g-2     :    -0.000000
      g+3     :     0.000000
      g-3     :    -0.000000
      g+4     :     0.000000
      g-4     :    -0.000000


                     *******************************
                     * LOEWDIN POPULATION ANALYSIS *
                     *******************************

-------------------------------------------
LOEWDIN ATOMIC CHARGES AND SPIN POPULATIONS
-------------------------------------------
   0 Cl:    1.523036    0.000000
   1 N :    0.285045    0.000000
   2 H :   -0.904040   -0.000000
   3 H :   -0.904040    0.000000

----------------------------------------------------
LOEWDIN REDUCED ORBITAL CHARGES AND SPIN POPULATIONS
----------------------------------------------------
CHARGE
  0 Cls       :     5.097841  s :     5.097841
      pz      :     2.942373  p :     9.725868
      px      :     3.390307
      py      :     3.393188
      dz2     :     0.130922  d :     0.311110
      dxz     :     0.083554
      dyz     :     0.095444
      dx2y2   :     0.000981
      dxy     :     0.000209
      f0      :     0.057132  f :     0.173716
      f+1     :     0.056592
      f-1     :     0.057353
      f+2     :     0.002121
      f-2     :     0.000423
      f+3     :     0.000076
      f-3     :     0.000019
      g0      :     0.027022  g :     0.112444
      g+1     :     0.041012
      g-1     :     0.039887
      g+2     :     0.003647
      g-2     :     0.000605
      g+3     :     0.000210
      g-3     :     0.000042
      g+4     :     0.000010
      g-4     :     0.000009
      h0      :     0.010819  h :     0.055985
      h+1     :     0.020542
      h-1     :     0.019811
      h+2     :     0.003617
      h-2     :     0.000658
      h+3     :     0.000360
      h-3     :     0.000041
      h+4     :     0.000068
      h-4     :     0.000067
      h+5     :     0.000001
      h-5     :     0.000001
  1 N s       :     2.750604  s :     2.750604
      pz      :     0.832969  p :     2.920422
      px      :     1.017461
      py      :     1.069992
      dz2     :     0.200711  d :     0.535873
      dxz     :     0.141918
      dyz     :     0.138821
      dx2y2   :     0.042597
      dxy     :     0.011827
      f0      :     0.081821  f :     0.259137
      f+1     :     0.083757
      f-1     :     0.082729
      f+2     :     0.002900
      f-2     :     0.000829
      f+3     :     0.005295
      f-3     :     0.001807
      g0      :     0.044089  g :     0.162039
      g+1     :     0.057867
      g-1     :     0.058631
      g+2     :     0.000122
      g-2     :     0.000047
      g+3     :     0.000303
      g-3     :     0.000098
      g+4     :     0.000456
      g-4     :     0.000426
      h0      :     0.020528  h :     0.086881
      h+1     :     0.032108
      h-1     :     0.032958
      h+2     :     0.000077
      h-2     :     0.000291
      h+3     :     0.000240
      h-3     :     0.000092
      h+4     :     0.000168
      h-4     :     0.000140
      h+5     :     0.000069
      h-5     :     0.000209
  2 H s       :     0.631001  s :     0.631001
      pz      :     0.135085  p :     0.482498
      px      :     0.218327
      py      :     0.129086
      dz2     :     0.092168  d :     0.419698
      dxz     :     0.107244
      dyz     :     0.034913
      dx2y2   :     0.070307
      dxy     :     0.115066
      f0      :     0.049569  f :     0.230211
      f+1     :     0.055528
      f-1     :     0.035848
      f+2     :     0.027634
      f-2     :     0.021733
      f+3     :     0.011568
      f-3     :     0.028331
      g0      :     0.029800  g :     0.140633
      g+1     :     0.028796
      g-1     :     0.017040
      g+2     :     0.022179
      g-2     :     0.027133
      g+3     :     0.005028
      g-3     :     0.005946
      g+4     :     0.001868
      g-4     :     0.002843
  3 H s       :     0.631001  s :     0.631001
      pz      :     0.135085  p :     0.482498
      px      :     0.125888
      py      :     0.221526
      dz2     :     0.092168  d :     0.419698
      dxz     :     0.043784
      dyz     :     0.098374
      dx2y2   :     0.100634
      dxy     :     0.084738
      f0      :     0.049569  f :     0.230211
      f+1     :     0.039743
      f-1     :     0.051634
      f+2     :     0.025001
      f-2     :     0.024366
      f+3     :     0.012460
      f-3     :     0.027439
      g0      :     0.029800  g :     0.140633
      g+1     :     0.018055
      g-1     :     0.027781
      g+2     :     0.023683
      g-2     :     0.025629
      g+3     :     0.005301
      g-3     :     0.005673
      g+4     :     0.003258
      g-4     :     0.001454

SPIN
  0 Cls       :    -0.000000  s :    -0.000000
      pz      :    -0.000000  p :    -0.000000
      px      :     0.000000
      py      :    -0.000000
      dz2     :     0.000000  d :     0.000000
      dxz     :    -0.000000
      dyz     :    -0.000000
      dx2y2   :    -0.000000
      dxy     :    -0.000000
      f0      :     0.000000  f :     0.000000
      f+1     :     0.000000
      f-1     :     0.000000
      f+2     :     0.000000
      f-2     :    -0.000000
      f+3     :     0.000000
      f-3     :    -0.000000
      g0      :    -0.000000  g :    -0.000000
      g+1     :    -0.000000
      g-1     :    -0.000000
      g+2     :     0.000000
      g-2     :     0.000000
      g+3     :    -0.000000
      g-3     :    -0.000000
      g+4     :    -0.000000
      g-4     :    -0.000000
      h0      :     0.000000  h :     0.000000
      h+1     :     0.000000
      h-1     :     0.000000
      h+2     :    -0.000000
      h-2     :    -0.000000
      h+3     :     0.000000
      h-3     :    -0.000000
      h+4     :    -0.000000
      h-4     :    -0.000000
      h+5     :     0.000000
      h-5     :    -0.000000
  1 N s       :     0.000000  s :     0.000000
      pz      :     0.000000  p :    -0.000000
      px      :    -0.000000
      py      :    -0.000000
      dz2     :    -0.000000  d :    -0.000000
      dxz     :    -0.000000
      dyz     :     0.000000
      dx2y2   :     0.000000
      dxy     :    -0.000000
      f0      :     0.000000  f :     0.000000
      f+1     :     0.000000
      f-1     :    -0.000000
      f+2     :     0.000000
      f-2     :     0.000000
      f+3     :     0.000000
      f-3     :    -0.000000
      g0      :     0.000000  g :     0.000000
      g+1     :    -0.000000
      g-1     :     0.000000
      g+2     :    -0.000000
      g-2     :    -0.000000
      g+3     :     0.000000
      g-3     :    -0.000000
      g+4     :     0.000000
      g-4     :    -0.000000
      h0      :    -0.000000  h :    -0.000000
      h+1     :    -0.000000
      h-1     :     0.000000
      h+2     :     0.000000
      h-2     :     0.000000
      h+3     :     0.000000
      h-3     :     0.000000
      h+4     :    -0.000000
      h-4     :    -0.000000
      h+5     :    -0.000000
      h-5     :    -0.000000
  2 H s       :    -0.000000  s :    -0.000000
      pz      :    -0.000000  p :    -0.000000
      px      :    -0.000000
      py      :    -0.000000
      dz2     :    -0.000000  d :     0.000000
      dxz     :     0.000000
      dyz     :     0.000000
      dx2y2   :     0.000000
      dxy     :    -0.000000
      f0      :     0.000000  f :     0.000000
      f+1     :    -0.000000
      f-1     :     0.000000
      f+2     :     0.000000
      f-2     :     0.000000
      f+3     :    -0.000000
      f-3     :    -0.000000
      g0      :     0.000000  g :     0.000000
      g+1     :     0.000000
      g-1     :     0.000000
      g+2     :    -0.000000
      g-2     :    -0.000000
      g+3     :    -0.000000
      g-3     :    -0.000000
      g+4     :    -0.000000
      g-4     :     0.000000
  3 H s       :     0.000000  s :     0.000000
      pz      :    -0.000000  p :    -0.000000
      px      :     0.000000
      py      :    -0.000000
      dz2     :     0.000000  d :     0.000000
      dxz     :    -0.000000
      dyz     :     0.000000
      dx2y2   :    -0.000000
      dxy     :     0.000000
      f0      :     0.000000  f :    -0.000000
      f+1     :    -0.000000
      f-1     :    -0.000000
      f+2     :     0.000000
      f-2     :     0.000000
      f+3     :    -0.000000
      f-3     :     0.000000
      g0      :     0.000000  g :     0.000000
      g+1     :    -0.000000
      g-1     :     0.000000
      g+2     :    -0.000000
      g-2     :     0.000000
      g+3     :    -0.000000
      g-3     :    -0.000000
      g+4     :     0.000000
      g-4     :     0.000000


                      *****************************
                      * MAYER POPULATION ANALYSIS *
                      *****************************

  NA   - Mulliken gross atomic population
  ZA   - Total nuclear charge
  QA   - Mulliken gross atomic charge
  VA   - Mayer's total valence
  BVA  - Mayer's bonded valence
  FA   - Mayer's free valence

  ATOM       NA         ZA         QA         VA         BVA        FA
  0 Cl    17.1220    17.0000    -0.1220     1.2805     1.2805     0.0000
  1 N      7.1853     7.0000    -0.1853     2.9560     2.9560     0.0000
  2 H      0.8464     1.0000     0.1536     1.0743     1.0743     0.0000
  3 H      0.8464     1.0000     0.1536     1.0743     1.0743     0.0000

  Mayer bond orders larger than 0.1
B(  0-Cl,  1-N ) :   1.0695 B(  0-Cl,  2-H ) :   0.1055 B(  0-Cl,  3-H ) :   0.1055 
B(  1-N ,  2-H ) :   0.9433 B(  1-N ,  3-H ) :   0.9432 

-------
TIMINGS
-------

Total SCF time: 0 days 1 hours 46 min 13 sec 

Total time                  ....    6373.267 sec
Sum of individual times     ....    6372.363 sec  (100.0%)

Fock matrix formation       ....    6358.358 sec  ( 99.8%)
  XC integration            ....     194.964 sec  (  3.1% of F)
    Basis function eval.    ....      12.299 sec  (  6.3% of XC)
    Density eval.           ....      49.026 sec  ( 25.1% of XC)
    XC-Functional eval.     ....       1.136 sec  (  0.6% of XC)
    XC-Potential eval.      ....     131.570 sec  ( 67.5% of XC)
Diagonalization             ....       1.884 sec  (  0.0%)
Density matrix formation    ....       0.040 sec  (  0.0%)
Population analysis         ....       0.228 sec  (  0.0%)
Initial guess               ....       8.021 sec  (  0.1%)
Orbital Transformation      ....       0.000 sec  (  0.0%)
Orbital Orthonormalization  ....       0.000 sec  (  0.0%)
DIIS solution               ....       0.870 sec  (  0.0%)
Grid generation             ....       2.961 sec  (  0.0%)

-------------------------   --------------------
FINAL SINGLE POINT ENERGY      -515.922449001182
-------------------------   --------------------


                            ***************************************
                            *     ORCA property calculations      *
                            ***************************************

                                    ---------------------
                                    Active property flags
                                    ---------------------
   (+) Dipole Moment
   (+) Polarizability


------------------------------------------------------------------------------
                       ORCA ELECTRIC PROPERTIES CALCULATION
------------------------------------------------------------------------------

Dipole Moment Calculation                       ... on
Quadrupole Moment Calculation                   ... off
Polarizability Calculation                      ... Analytic (CP-SCF)
GBWName                                         ... nh2cl_pbe.gbw
Electron density file                           ... nh2cl_pbe.scfp.tmp
The origin for moment calculation is the CENTER OF MASS  = ( 0.024253, -0.034419  1.045566)

-------------
DIPOLE MOMENT
-------------
                                X             Y             Z
Electronic contribution:     -0.26292       0.37313      -2.97802
Nuclear contribution   :      0.60797      -0.86280       3.43695
                        -----------------------------------------
Total Dipole Moment    :      0.34505      -0.48967       0.45893
                        -----------------------------------------
Magnitude (a.u.)       :      0.75462
Magnitude (Debye)      :      1.91810



--------------------
Rotational spectrum 
--------------------
 
Rotational constants in cm-1:     9.049835     0.473605     0.463632 
Rotational constants in MHz : 271307.221348 14198.317814 13899.341134 

 Dipole components along the rotational axes: 
x,y,z [a.u.] :     0.486972    -0.000000     0.576468 
x,y,z [Debye]:     1.237786    -0.000000     1.465264 

 
Transforming and storing MO dipole integrals   ... done

                ... starting polarizability calculation

Opening the Dipole integral file               ... (nh2cl_pbe.dmo.tmp) done
Reading Dipole-MO integrals                    ... done
Solving CP-SCF equations                       ... 
------------------------------------------------------------------------------
                           ORCA CP-SCF CALCULATION
------------------------------------------------------------------------------

Input orbitals are from        ... nh2cl_pbe.gbw
Input Perturbation             ... nh2cl_pbe.cpv.tmp
Wavefunction output            ... nh2cl_pbe.cpu.tmp
Perturbation mode              ... Real perturbation (singlet)
Solver                         ... POPLE
Max. number of iterations      ... 200
Convergence tolerance          ... 1.000e-06
Integral handling              ... Direct
Number of perturbations        ... 3
Number of operators            ... 2
Orbital ranges used for CP-SCF:
 Operator 0:  Orbitals   0... 12  to  13...461
 Operator 1:  Orbitals   0... 12  to  13...461
DFT calculation                         ... on
Exchange functional (SCF)               ... PBE
Exchange functional (CP-SCF)            ... PBE
   PBE kappa parameter  XKappa (SCF)    ...  0.804000
   PBE kappa parameter  XKappa (CP-SCF) ...  0.804000
   PBE mue parameter   XMuePBE (SCF)    ...  0.219520
   PBE mue parameter   XMuePBE (CP-SCF) ...  0.219520
Correlation functional (SCF)            ... PBE
Correlation functional (CP-SCF)         ... PBE
   PBE beta parameter CBetaPBE (SCF)    ...  0.066725
   PBE beta parameter CBetaPBE (CP-SCF) ...  0.066725
 LDA part of GGA corr.  LDAOpt (SCF)    ... PW91-LDA
 LDA part of GGA corr.  LDAOpt (CP-SCF) ... PW91-LDA
Variables per vector in CP-SCF ... 11674
Number of vectors sought       ... 3
Recalculating density on grid  ... done
Calculating the xc-kernel      ... done
     CP-SCF ITERATION   0: 
     CP-SCF ITERATION   1:      0.738791959490
     CP-SCF ITERATION   2:      0.027934138660
     CP-SCF ITERATION   3:      0.001636332463
     CP-SCF ITERATION   4:      0.000101924021
     CP-SCF ITERATION   5:      0.000002194509
     CP-SCF ITERATION   6:      0.000000115310
done
Reading CP-SCF coefficients                    ... done
Doing the polarizability tensor   ... done
Cleaning up                                    ... done

-------------------------
THE POLARIZABILITY TENSOR
-------------------------

The raw cartesian tensor (atomic units):
   24.77493     -0.11343      0.33261  
   -0.11343     24.85624     -0.47203  
    0.33261     -0.47203     35.16941  
diagonalized tensor: 
   24.69509     24.90359     35.20189  

    0.81779     -0.57461      0.03235  
    0.57552      0.81650     -0.04591  
   -0.00003      0.05616      0.99842  

Isotropic polarizability :  28.26686


Timings for individual modules:

Sum of individual times         ...    11557.423 sec (= 192.624 min)
GTO integral calculation        ...        1.744 sec (=   0.029 min)   0.0 %
SCF iterations                  ...     6373.298 sec (= 106.222 min)  55.1 %
Solution of CP-SCF eqns.        ...     5182.382 sec (=  86.373 min)  44.8 %
                             ****ORCA TERMINATED NORMALLY****
TOTAL RUN TIME: 0 days 3 hours 12 minutes 37 seconds 997 msec
