
                                 *****************
                                 * O   R   C   A *
                                 *****************

           --- An Ab Initio, DFT and Semiempirical electronic structure package ---

                  #######################################################
                  #                        -***-                        #
                  #          Department of theory and spectroscopy      #
                  #               Directorship: Frank Neese             #
                  #        Max Planck Institute fuer Kohlenforschung    #
                  #                Kaiser Wilhelm Platz 1               #
                  #                 D-45470 Muelheim/Ruhr               #
                  #                      Germany                        #
                  #                                                     #
                  #                  All rights reserved                #
                  #                        -***-                        #
                  #######################################################


                         Program Version 4.1.2  - RELEASE  -


 With contributions from (in alphabetic order):
   Daniel Aravena         : Magnetic Properties
   Michael Atanasov       : Ab Initio Ligand Field Theory
   Alexander A. Auer      : GIAO ZORA
   Ute Becker             : Parallelization
   Giovanni Bistoni       : ED, Open-shell LED
   Martin Brehm           : Molecular dynamics
   Dmytro Bykov           : SCF Hessian
   Vijay G. Chilkuri      : MRCI spin determinant printing
   Dipayan Datta          : RHF DLPNO-CCSD density
   Achintya Kumar Dutta   : EOM-CC, STEOM-CC
   Dmitry Ganyushin       : Spin-Orbit,Spin-Spin,Magnetic field MRCI
   Miquel Garcia          : C-PCM Hessian
   Yang Guo               : DLPNO-NEVPT2, CIM, IAO-localization
   Andreas Hansen         : Spin unrestricted coupled pair/coupled cluster methods
   Benjamin Helmich-Paris : CASSCF linear response (MC-RPA)
   Lee Huntington         : MR-EOM, pCC
   Robert Izsak           : Overlap fitted RIJCOSX, COSX-SCS-MP3, EOM
   Christian Kollmar      : KDIIS, OOCD, Brueckner-CCSD(T), CCSD density
   Simone Kossmann        : Meta GGA functionals, TD-DFT gradient, OOMP2, MP2 Hessian
   Martin Krupicka        : AUTO-CI
   Lucas Lang             : DCDCAS
   Dagmar Lenk            : GEPOL surface, SMD
   Dimitrios Liakos       : Extrapolation schemes; parallel MDCI
   Dimitrios Manganas     : ROCIS; embedding schemes
   Dimitrios Pantazis     : SARC Basis sets
   Taras Petrenko         : DFT Hessian,TD-DFT gradient, ASA, ECA, R-Raman, ABS, FL, XAS/XES, NRVS
   Peter Pinski           : DLPNO-MP2, DLPNO-MP2 Gradient
   Christoph Reimann      : Effective Core Potentials
   Marius Retegan         : Local ZFS, SOC
   Christoph Riplinger    : Optimizer, TS searches, QM/MM, DLPNO-CCSD(T), (RO)-DLPNO pert. Triples
   Tobias Risthaus        : Range-separated hybrids, TD-DFT gradient, RPA, STAB
   Michael Roemelt        : Restricted open shell CIS
   Masaaki Saitow         : Open-shell DLPNO
   Barbara Sandhoefer     : DKH picture change effects
   Avijit Sen             : IP-ROCIS
   Kantharuban Sivalingam : CASSCF convergence, NEVPT2, FIC-MRCI
   Bernardo de Souza      : ESD, SOC TD-DFT
   Georgi Stoychev        : AutoAux, RI-MP2 NMR
   Willem Van den Heuvel  : Paramagnetic NMR
   Boris Wezisla          : Elementary symmetry handling
   Frank Wennmohs         : Technical directorship


 We gratefully acknowledge several colleagues who have allowed us to
 interface, adapt or use parts of their codes:
   Stefan Grimme, W. Hujo, H. Kruse,             : VdW corrections, initial TS optimization,
                  C. Bannwarth                     DFT functionals, gCP, sTDA/sTD-DF
   Ed Valeev                                     : LibInt (2-el integral package), F12 methods
   Garnet Chan, S. Sharma, J. Yang, R. Olivares  : DMRG
   Ulf Ekstrom                                   : XCFun DFT Library
   Mihaly Kallay                                 : mrcc  (arbitrary order and MRCC methods)
   Andreas Klamt, Michael Diedenhofen            : otool_cosmo (COSMO solvation model)
   Jiri Pittner, Ondrej Demel                    : Mk-CCSD
   Frank Weinhold                                : gennbo (NPA and NBO analysis)
   Christopher J. Cramer and Donald G. Truhlar   : smd solvation model
   Lars Goerigk                                  : TD-DFT with DH, B97 family of functionals
   V. Asgeirsson, H. Jonsson                     : NEB implementation
   FAccTs GmbH                                   : IRC, NEB, NEB-TS, Multilevel


 Your calculation uses the libint2 library for the computation of 2-el integrals
 For citations please refer to: http://libint.valeyev.net

 This ORCA versions uses:
   CBLAS   interface :  Fast vector & matrix operations
   LAPACKE interface :  Fast linear algebra routines
   SCALAPACK package :  Parallel linear algebra routines


----- Orbital basis set information -----
Your calculation utilizes the basis: aug-pc-4
   H, C-F              : F. Jensen, J. Chem. Phys. 115, 9113 (2001).
                         F. Jensen, J. Chem. Phys. 116, 7372 (2002).
                         F. Jensen, J. Chem. Phys. 117, 9234 (2002).
   Si-Cl               : F. Jensen, T. Helgaker, J. Chem. Phys. 121, 3463 (2004).
   He-B, Ne-Mg, Al, Ar : F. Jensen, J. Phys. Chem. A 111, 11198 (2007).
   K, Ca, Ga-Kr        : F. Jensen, J. Chem. Phys. 136, 094110 (2012).
   Sc-Zn               : F. Jensen, J. Chem. Phys. 138, 014107 (2013).

================================================================================
                                        WARNINGS
                       Please study these warnings very carefully!
================================================================================


INFO   : the flag for use of LIBINT has been found!

================================================================================
                                       INPUT FILE
================================================================================
NAME = nh2f_pbe.inp
|  1> !uks pbe nori aug-pc-4 grid7 nofinalgrid verytightscf
|  2> 
|  3> %maxcore 1500
|  4> 
|  5> %pal nprocs 1 end
|  6> 
|  7> %scf
|  8> 	maxiter 200
|  9> end
| 10> %elprop
| 11> 	dipole true
| 12> 	 polar 1
| 13> 	 maxiter 200
| 14> end
| 15> 
| 16> * xyz 0 1
| 17> N 0.0000000000 0.0000000000 0.0000000000
| 18> H 0.0000000000 0.0000000000 1.0171780000
| 19> H 0.9838480958 0.0000000000 -0.2582518307
| 20> F -0.3678444665 1.3400564697 -0.2837498835
| 21> *
| 22> 
| 23>                          ****END OF INPUT****
================================================================================

                       ****************************
                       * Single Point Calculation *
                       ****************************

---------------------------------
CARTESIAN COORDINATES (ANGSTROEM)
---------------------------------
  N      0.000000    0.000000    0.000000
  H      0.000000    0.000000    1.017178
  H      0.983848    0.000000   -0.258252
  F     -0.367844    1.340056   -0.283750

----------------------------
CARTESIAN COORDINATES (A.U.)
----------------------------
  NO LB      ZA    FRAG     MASS         X           Y           Z
   0 N     7.0000    0    14.007    0.000000    0.000000    0.000000
   1 H     1.0000    0     1.008    0.000000    0.000000    1.922188
   2 H     1.0000    0     1.008    1.859203    0.000000   -0.488025
   3 F     9.0000    0    18.998   -0.695125    2.532340   -0.536210

--------------------------------
INTERNAL COORDINATES (ANGSTROEM)
--------------------------------
 N      0   0   0     0.000000000000     0.00000000     0.00000000
 H      1   0   0     1.017178000000     0.00000000     0.00000000
 H      1   2   0     1.017177999993   104.70785200     0.00000000
 F      1   2   3     1.418299999967   101.54066500   254.65042700

---------------------------
INTERNAL COORDINATES (A.U.)
---------------------------
 N      0   0   0     0.000000000000     0.00000000     0.00000000
 H      1   0   0     1.922187849450     0.00000000     0.00000000
 H      1   2   0     1.922187849436   104.70785200     0.00000000
 F      1   2   3     2.680198575678   101.54066500   254.65042700

---------------------
BASIS SET INFORMATION
---------------------
There are 3 groups of distinct atoms

 Group   1 Type N   : 27s12p7d4f3g2h contracted to 9s8p7d4f3g2h pattern {1191111111/51111111/1111111/1111/111/11}
 Group   2 Type H   : 12s7p4d3f2g contracted to 8s7p4d3f2g pattern {51111111/1111111/1111/111/11}
 Group   3 Type F   : 27s12p7d4f3g2h contracted to 9s8p7d4f3g2h pattern {1191111111/51111111/1111111/1111/111/11}

Atom   0N    basis set group =>   1
Atom   1H    basis set group =>   2
Atom   2H    basis set group =>   2
Atom   3F    basis set group =>   3
------------------------------------------------------------------------------
                           ORCA GTO INTEGRAL CALCULATION
------------------------------------------------------------------------------

                         BASIS SET STATISTICS AND STARTUP INFO

 # of primitive gaussian shells          ...  166
 # of primitive gaussian functions       ...  534
 # of contracted shells                  ...  114
 # of contracted basis functions         ...  466
 Highest angular momentum                ...    5
 Maximum contraction depth               ...   11
 Integral package used                   ... LIBINT
 Integral threshhold            Thresh   ...  1.000e-12
 Primitive cut-off              TCut     ...  1.000e-14


------------------------------ INTEGRAL EVALUATION ----------------------------


 * One electron integrals 
 Pre-screening matrix                    ... done
 Shell pair data                         ... done (   0.002 sec)

-------------------------------------------------------------------------------
                                 ORCA SCF
-------------------------------------------------------------------------------

------------
SCF SETTINGS
------------
Hamiltonian:
 Density Functional     Method          .... DFT(GTOs)
 Exchange Functional    Exchange        .... PBE
   PBE kappa parameter   XKappa         ....  0.804000
   PBE mue parameter    XMuePBE         ....  0.219520
 Correlation Functional Correlation     .... PBE
   PBE beta parameter  CBetaPBE         ....  0.066725
 LDA part of GGA corr.  LDAOpt          .... PW91-LDA
 Gradients option       PostSCFGGA      .... off
   Density functional embedding theory  .... OFF
   NL short-range parameter             ....  6.400000


General Settings:
 Integral files         IntName         .... nh2f_pbe
 Hartree-Fock type      HFTyp           .... UHF
 Total Charge           Charge          ....    0
 Multiplicity           Mult            ....    1
 Number of Electrons    NEL             ....   18
 Basis Dimension        Dim             ....  466
 Nuclear Repulsion      ENuc            ....     36.1215343273 Eh

Convergence Acceleration:
 DIIS                   CNVDIIS         .... on
   Start iteration      DIISMaxIt       ....    12
   Startup error        DIISStart       ....  0.200000
   # of expansion vecs  DIISMaxEq       ....     5
   Bias factor          DIISBfac        ....   1.050
   Max. coefficient     DIISMaxC        ....  10.000
 Newton-Raphson         CNVNR           .... off
 SOSCF                  CNVSOSCF        .... off
 Level Shifting         CNVShift        .... on
   Level shift para.    LevelShift      ....    0.2500
   Turn off err/grad.   ShiftErr        ....    0.0010
 Zerner damping         CNVZerner       .... off
 Static damping         CNVDamp         .... on
   Fraction old density DampFac         ....    0.7000
   Max. Damping (<1)    DampMax         ....    0.9800
   Min. Damping (>=0)   DampMin         ....    0.0000
   Turn off err/grad.   DampErr         ....    0.1000
 Fernandez-Rico         CNVRico         .... off

SCF Procedure:
 Maximum # iterations   MaxIter         ....   200
 SCF integral mode      SCFMode         .... Direct
   Integral package                     .... LIBINT
 Reset frequency        DirectResetFreq ....    20
 Integral Threshold     Thresh          ....  1.000e-12 Eh
 Primitive CutOff       TCut            ....  1.000e-14 Eh

Convergence Tolerance:
 Convergence Check Mode ConvCheckMode   .... Total+1el-Energy
 Convergence forced     ConvForced      .... 0
 Energy Change          TolE            ....  1.000e-09 Eh
 1-El. energy change                    ....  1.000e-06 Eh
 DIIS Error             TolErr          ....  1.000e-08


Diagonalization of the overlap matrix:
Smallest eigenvalue                        ... 1.504e-06
Time for diagonalization                   ...    0.049 sec
Threshold for overlap eigenvalues          ... 1.000e-08
Number of eigenvalues below threshold      ... 0
Time for construction of square roots      ...    0.030 sec
Total time needed                          ...    0.080 sec

-------------------
DFT GRID GENERATION
-------------------

General Integration Accuracy     IntAcc      ...  5.670
Radial Grid Type                 RadialGrid  ... Gauss-Chebyshev
Angular Grid (max. acc.)         AngularGrid ... Lebedev-770
Angular grid pruning method      GridPruning ... 3 (G Style)
Weight generation scheme         WeightScheme... Becke
Basis function cutoff            BFCut       ...    1.0000e-12
Integration weight cutoff        WCut        ...    1.0000e-14
Grids for H and He will be reduced by one unit

# of grid points (after initial pruning)     ...  86196 (   0.0 sec)
# of grid points (after weights+screening)   ...  84631 (   0.0 sec)
nearest neighbour list constructed           ...    0.0 sec
Grid point re-assignment to atoms done       ...    0.0 sec
Grid point division into batches done        ...    1.6 sec
Reduced shell lists constructed in    2.7 sec

Total number of grid points                  ...    84631
Total number of batches                      ...     1325
Average number of points per batch           ...       63
Average number of grid points per atom       ...    21158
Average number of shells per batch           ...    84.07 (73.74%)
Average number of basis functions per batch  ...   355.98 (76.39%)
Average number of large shells per batch     ...    74.73 (88.89%)
Average number of large basis fcns per batch ...   316.16 (88.81%)
Maximum spatial batch extension              ...  20.10, 19.58, 15.27 au
Average spatial batch extension              ...   1.92,  1.91,  1.88 au

Time for grid setup =    2.756 sec

------------------------------
INITIAL GUESS: MODEL POTENTIAL
------------------------------
Loading Hartree-Fock densities                     ... done
Calculating cut-offs                               ... done
Setting up the integral package                    ... done
Initializing the effective Hamiltonian             ... done
Starting the Coulomb interaction                   ... done (   0.1 sec)
Reading the grid                                   ... done
Mapping shells                                     ... done
Starting the XC term evaluation                    ... done (   7.4 sec)
  promolecular density results
     # of electrons  =     17.999020593
     EX              =    -17.072903863
     EC              =     -0.596231082
     EX+EC           =    -17.669134945
Transforming the Hamiltonian                       ... done (   0.0 sec)
Diagonalizing the Hamiltonian                      ... done (   0.0 sec)
Back transforming the eigenvectors                 ... done (   0.0 sec)
Now organizing SCF variables                       ... done
                      ------------------
                      INITIAL GUESS DONE (  10.5 sec)
                      ------------------
--------------
SCF ITERATIONS
--------------
ITER       Energy         Delta-E        Max-DP      RMS-DP      [F,P]     Damp
               ***  Starting incremental Fock matrix formation  ***
  0   -155.6090117946   0.000000000000 0.00797617  0.00008757  0.1390424 0.7000
  1   -155.6256591337  -0.016647339125 0.01014534  0.00007023  0.0583910 0.7000
                               ***Turning on DIIS***
  2   -155.6316330364  -0.005973902697 0.01724453  0.00011606  0.0207397 0.0000
  3   -155.6410944179  -0.009461381547 0.00930704  0.00005549  0.0370283 0.0000
  4   -155.6434002980  -0.002305880072 0.00342502  0.00001957  0.0067445 0.0000
  5   -155.6435014910  -0.000101192956 0.00093422  0.00000605  0.0032007 0.0000
  6   -155.6435125503  -0.000011059316 0.00017699  0.00000203  0.0015983 0.0000
  7   -155.6435146222  -0.000002071884 0.00020488  0.00000210  0.0001952 0.0000
  8   -155.6435147577  -0.000000135487 0.00004336  0.00000026  0.0000438 0.0000
  9   -155.6435147598  -0.000000002161 0.00000336  0.00000004  0.0000320 0.0000
 10   -155.6435147619  -0.000000002058 0.00000200  0.00000003  0.0000022 0.0000
 11   -155.6435147619  -0.000000000012 0.00001167  0.00000010  0.0000012 0.0000
 12   -155.6435147619  -0.000000000007 0.00001120  0.00000012  0.0000004 0.0000
                 **** Energy Check signals convergence ****

               *****************************************************
               *                     SUCCESS                       *
               *           SCF CONVERGED AFTER  13 CYCLES          *
               *****************************************************


----------------
TOTAL SCF ENERGY
----------------

Total Energy       :         -155.64351476 Eh           -4235.27535 eV

Components:
Nuclear Repulsion  :           36.12153433 Eh             982.91692 eV
Electronic Energy  :         -191.76504909 Eh           -5218.19227 eV
One Electron Energy:         -286.49924386 Eh           -7796.04077 eV
Two Electron Energy:           94.73419477 Eh            2577.84849 eV

Virial components:
Potential Energy   :         -310.85676279 Eh           -8458.84255 eV
Kinetic Energy     :          155.21324803 Eh            4223.56720 eV
Virial Ratio       :            2.00277210


DFT components:
N(Alpha)           :        9.000000091073 electrons
N(Beta)            :        9.000000091073 electrons
N(Total)           :       18.000000182146 electrons
E(X)               :      -17.292152804432 Eh       
E(C)               :       -0.598935357166 Eh       
E(XC)              :      -17.891088161598 Eh       
DFET-embed. en.    :        0.000000000000 Eh       

---------------
SCF CONVERGENCE
---------------

  Last Energy change         ...    3.2401e-12  Tolerance :   1.0000e-09
  Last MAX-Density change    ...    2.1491e-05  Tolerance :   1.0000e-08
  Last RMS-Density change    ...    2.3219e-07  Tolerance :   1.0000e-09
  Last DIIS Error            ...    6.3558e-08  Tolerance :   1.0000e-08

             **** THE GBW FILE WAS UPDATED (nh2f_pbe.gbw) ****
             **** DENSITY FILE WAS UPDATED (nh2f_pbe.scfp.tmp) ****
             **** ENERGY FILE WAS UPDATED (nh2f_pbe.en.tmp) ****
----------------------
UHF SPIN CONTAMINATION
----------------------

Warning: in a DFT calculation there is little theoretical justification to 
         calculate <S**2> as in Hartree-Fock theory. We will do it anyways
         but you should keep in mind that the values have only limited relevance

Expectation value of <S**2>     :     0.000000
Ideal value S*(S+1) for S=0.0   :     0.000000
Deviation                       :     0.000000

----------------
ORBITAL ENERGIES
----------------
                 SPIN UP ORBITALS
  NO   OCC          E(Eh)            E(eV) 
   0   1.0000     -24.265332      -660.2932 
   1   1.0000     -14.062518      -382.6606 
   2   1.0000      -1.115017       -30.3411 
   3   1.0000      -0.775402       -21.0998 
   4   1.0000      -0.485649       -13.2152 
   5   1.0000      -0.477752       -13.0003 
   6   1.0000      -0.387445       -10.5429 
   7   1.0000      -0.323526        -8.8036 
   8   1.0000      -0.238597        -6.4925 
   9   0.0000      -0.036794        -1.0012 
  10   0.0000      -0.026638        -0.7248 
  11   0.0000       0.009604         0.2613 
  12   0.0000       0.022455         0.6110 
  13   0.0000       0.033411         0.9092 
  14   0.0000       0.038667         1.0522 
  15   0.0000       0.050861         1.3840 
  16   0.0000       0.055080         1.4988 
  17   0.0000       0.061547         1.6748 
  18   0.0000       0.069101         1.8803 
  19   0.0000       0.070723         1.9245 
  20   0.0000       0.074540         2.0283 
  21   0.0000       0.089537         2.4364 
  22   0.0000       0.105168         2.8618 
  23   0.0000       0.118994         3.2380 
  24   0.0000       0.123137         3.3507 
  25   0.0000       0.129369         3.5203 
  26   0.0000       0.141907         3.8615 
  27   0.0000       0.147275         4.0075 
  28   0.0000       0.157261         4.2793 
  29   0.0000       0.161605         4.3975 
  30   0.0000       0.165994         4.5169 
  31   0.0000       0.169716         4.6182 
  32   0.0000       0.175072         4.7640 
  33   0.0000       0.182964         4.9787 
  34   0.0000       0.194802         5.3008 
  35   0.0000       0.194969         5.3054 
  36   0.0000       0.205342         5.5876 
  37   0.0000       0.226517         6.1638 
  38   0.0000       0.233867         6.3638 
  39   0.0000       0.235610         6.4113 
  40   0.0000       0.241247         6.5647 
  41   0.0000       0.248217         6.7543 
  42   0.0000       0.255942         6.9645 
  43   0.0000       0.266249         7.2450 
  44   0.0000       0.267438         7.2773 
  45   0.0000       0.279551         7.6070 
  46   0.0000       0.281722         7.6660 
  47   0.0000       0.285171         7.7599 
  48   0.0000       0.296652         8.0723 
  49   0.0000       0.307750         8.3743 
  50   0.0000       0.309253         8.4152 
  51   0.0000       0.328425         8.9369 
  52   0.0000       0.338950         9.2233 
  53   0.0000       0.345148         9.3920 
  54   0.0000       0.360967         9.8224 
  55   0.0000       0.372432        10.1344 
  56   0.0000       0.377410        10.2699 
  57   0.0000       0.385842        10.4993 
  58   0.0000       0.395642        10.7660 
  59   0.0000       0.397082        10.8052 
  60   0.0000       0.403822        10.9886 
  61   0.0000       0.409637        11.1468 
  62   0.0000       0.410311        11.1651 
  63   0.0000       0.418525        11.3886 
  64   0.0000       0.422351        11.4928 
  65   0.0000       0.426985        11.6189 
  66   0.0000       0.434277        11.8173 
  67   0.0000       0.436269        11.8715 
  68   0.0000       0.450153        12.2493 
  69   0.0000       0.455214        12.3870 
  70   0.0000       0.461050        12.5458 
  71   0.0000       0.467633        12.7249 
  72   0.0000       0.472475        12.8567 
  73   0.0000       0.483637        13.1604 
  74   0.0000       0.486637        13.2421 
  75   0.0000       0.487913        13.2768 
  76   0.0000       0.502854        13.6833 
  77   0.0000       0.510222        13.8838 
  78   0.0000       0.515460        14.0264 
  79   0.0000       0.523535        14.2461 
  80   0.0000       0.539335        14.6760 
  81   0.0000       0.567483        15.4420 
  82   0.0000       0.568662        15.4741 
  83   0.0000       0.585829        15.9412 
  84   0.0000       0.608966        16.5708 
  85   0.0000       0.621900        16.9228 
  86   0.0000       0.628543        17.1035 
  87   0.0000       0.642419        17.4811 
  88   0.0000       0.644844        17.5471 
  89   0.0000       0.661750        18.0071 
  90   0.0000       0.664061        18.0700 
  91   0.0000       0.668803        18.1991 
  92   0.0000       0.671688        18.2775 
  93   0.0000       0.675849        18.3908 
  94   0.0000       0.678471        18.4621 
  95   0.0000       0.683521        18.5995 
  96   0.0000       0.687324        18.7030 
  97   0.0000       0.695504        18.9256 
  98   0.0000       0.698258        19.0006 
  99   0.0000       0.713351        19.4113 
 100   0.0000       0.715128        19.4596 
 101   0.0000       0.725190        19.7334 
 102   0.0000       0.728342        19.8192 
 103   0.0000       0.730953        19.8902 
 104   0.0000       0.742444        20.2029 
 105   0.0000       0.751408        20.4469 
 106   0.0000       0.757499        20.6126 
 107   0.0000       0.779073        21.1997 
 108   0.0000       0.780644        21.2424 
 109   0.0000       0.795741        21.6532 
 110   0.0000       0.805651        21.9229 
 111   0.0000       0.809989        22.0409 
 112   0.0000       0.810220        22.0472 
 113   0.0000       0.816391        22.2151 
 114   0.0000       0.817908        22.2564 
 115   0.0000       0.832269        22.6472 
 116   0.0000       0.845985        23.0204 
 117   0.0000       0.858738        23.3675 
 118   0.0000       0.860895        23.4262 
 119   0.0000       0.873535        23.7701 
 120   0.0000       0.884656        24.0727 
 121   0.0000       0.885113        24.0851 
 122   0.0000       0.887902        24.1610 
 123   0.0000       0.921051        25.0631 
 124   0.0000       0.927806        25.2469 
 125   0.0000       0.928876        25.2760 
 126   0.0000       0.931382        25.3442 
 127   0.0000       0.952099        25.9079 
 128   0.0000       0.970264        26.4022 
 129   0.0000       0.975698        26.5501 
 130   0.0000       0.982066        26.7234 
 131   0.0000       0.992429        27.0054 
 132   0.0000       1.002078        27.2679 
 133   0.0000       1.006522        27.3889 
 134   0.0000       1.009562        27.4716 
 135   0.0000       1.031477        28.0679 
 136   0.0000       1.036649        28.2086 
 137   0.0000       1.053377        28.6639 
 138   0.0000       1.068839        29.0846 
 139   0.0000       1.096897        29.8481 
 140   0.0000       1.110371        30.2147 
 141   0.0000       1.126239        30.6465 
 142   0.0000       1.138446        30.9787 
 143   0.0000       1.164481        31.6871 
 144   0.0000       1.172078        31.8939 
 145   0.0000       1.194149        32.4944 
 146   0.0000       1.229222        33.4488 
 147   0.0000       1.232519        33.5386 
 148   0.0000       1.258214        34.2378 
 149   0.0000       1.267643        34.4943 
 150   0.0000       1.291907        35.1546 
 151   0.0000       1.293903        35.2089 
 152   0.0000       1.304219        35.4896 
 153   0.0000       1.322568        35.9889 
 154   0.0000       1.326941        36.1079 
 155   0.0000       1.361194        37.0400 
 156   0.0000       1.365596        37.1598 
 157   0.0000       1.380728        37.5715 
 158   0.0000       1.396052        37.9885 
 159   0.0000       1.401436        38.1350 
 160   0.0000       1.405989        38.2589 
 161   0.0000       1.421877        38.6913 
 162   0.0000       1.452457        39.5234 
 163   0.0000       1.462339        39.7923 
 164   0.0000       1.466740        39.9120 
 165   0.0000       1.479088        40.2480 
 166   0.0000       1.503007        40.8989 
 167   0.0000       1.512849        41.1667 
 168   0.0000       1.524285        41.4779 
 169   0.0000       1.538287        41.8589 
 170   0.0000       1.545458        42.0540 
 171   0.0000       1.567116        42.6434 
 172   0.0000       1.579340        42.9760 
 173   0.0000       1.597688        43.4753 
 174   0.0000       1.652864        44.9767 
 175   0.0000       1.656133        45.0657 
 176   0.0000       1.685568        45.8666 
 177   0.0000       1.686410        45.8895 
 178   0.0000       1.728740        47.0414 
 179   0.0000       1.753218        47.7075 
 180   0.0000       1.771781        48.2126 
 181   0.0000       1.790726        48.7281 
 182   0.0000       1.817763        49.4638 
 183   0.0000       1.827618        49.7320 
 184   0.0000       1.845778        50.2262 
 185   0.0000       1.901418        51.7402 
 186   0.0000       1.919649        52.2363 
 187   0.0000       1.925748        52.4023 
 188   0.0000       1.938802        52.7575 
 189   0.0000       2.045379        55.6576 
 190   0.0000       2.119586        57.6769 
 191   0.0000       2.190596        59.6091 
 192   0.0000       2.190983        59.6197 
 193   0.0000       2.251647        61.2704 
 194   0.0000       2.282317        62.1050 
 195   0.0000       2.352068        64.0030 
 196   0.0000       2.372265        64.5526 
 197   0.0000       2.408061        65.5267 
 198   0.0000       2.409776        65.5733 
 199   0.0000       2.443566        66.4928 
 200   0.0000       2.467813        67.1526 
 201   0.0000       2.471298        67.2474 
 202   0.0000       2.501138        68.0594 
 203   0.0000       2.565591        69.8133 
 204   0.0000       2.610274        71.0292 
 205   0.0000       2.654215        72.2249 
 206   0.0000       2.702332        73.5342 
 207   0.0000       2.743251        74.6477 
 208   0.0000       2.753082        74.9152 
 209   0.0000       2.789457        75.9050 
 210   0.0000       2.832049        77.0640 
 211   0.0000       2.839285        77.2609 
 212   0.0000       2.881297        78.4041 
 213   0.0000       3.011403        81.9444 
 214   0.0000       3.068617        83.5013 
 215   0.0000       3.124913        85.0332 
 216   0.0000       3.152862        85.7937 
 217   0.0000       3.210847        87.3716 
 218   0.0000       3.227998        87.8383 
 219   0.0000       3.261117        88.7395 
 220   0.0000       3.297061        89.7176 
 221   0.0000       3.343721        90.9873 
 222   0.0000       3.394048        92.3568 
 223   0.0000       3.430150        93.3391 
 224   0.0000       3.519900        95.7813 
 225   0.0000       3.530105        96.0590 
 226   0.0000       3.549539        96.5879 
 227   0.0000       3.638638        99.0124 
 228   0.0000       3.656485        99.4980 
 229   0.0000       3.685805       100.2958 
 230   0.0000       3.770315       102.5955 
 231   0.0000       3.798020       103.3494 
 232   0.0000       3.842224       104.5522 
 233   0.0000       3.885347       105.7257 
 234   0.0000       3.897029       106.0436 
 235   0.0000       3.945114       107.3520 
 236   0.0000       3.971692       108.0752 
 237   0.0000       4.015929       109.2790 
 238   0.0000       4.088391       111.2508 
 239   0.0000       4.097762       111.5058 
 240   0.0000       4.204957       114.4227 
 241   0.0000       4.229696       115.0959 
 242   0.0000       4.292964       116.8175 
 243   0.0000       4.325960       117.7154 
 244   0.0000       4.373620       119.0123 
 245   0.0000       4.546654       123.7207 
 246   0.0000       4.646361       126.4339 
 247   0.0000       4.717129       128.3596 
 248   0.0000       4.750489       129.2674 
 249   0.0000       4.857016       132.1661 
 250   0.0000       4.907344       133.5356 
 251   0.0000       4.950811       134.7184 
 252   0.0000       5.033535       136.9694 
 253   0.0000       5.045527       137.2958 
 254   0.0000       5.170460       140.6954 
 255   0.0000       5.241610       142.6315 
 256   0.0000       5.374580       146.2498 
 257   0.0000       5.401343       146.9780 
 258   0.0000       5.431567       147.8004 
 259   0.0000       5.457475       148.5054 
 260   0.0000       5.667120       154.2102 
 261   0.0000       5.672809       154.3650 
 262   0.0000       5.714705       155.5050 
 263   0.0000       5.748844       156.4340 
 264   0.0000       5.785578       157.4336 
 265   0.0000       5.824985       158.5059 
 266   0.0000       5.844509       159.0372 
 267   0.0000       5.897531       160.4800 
 268   0.0000       5.987502       162.9282 
 269   0.0000       6.014919       163.6743 
 270   0.0000       6.095450       165.8656 
 271   0.0000       6.122304       166.5964 
 272   0.0000       6.170156       167.8985 
 273   0.0000       6.181588       168.2096 
 274   0.0000       6.191514       168.4796 
 275   0.0000       6.258100       170.2916 
 276   0.0000       6.271774       170.6637 
 277   0.0000       6.289296       171.1405 
 278   0.0000       6.356374       172.9657 
 279   0.0000       6.379003       173.5815 
 280   0.0000       6.579096       179.0263 
 281   0.0000       6.607445       179.7977 
 282   0.0000       6.685428       181.9197 
 283   0.0000       6.734858       183.2648 
 284   0.0000       6.925789       188.4603 
 285   0.0000       6.947968       189.0638 
 286   0.0000       7.134043       194.1272 
 287   0.0000       7.155417       194.7088 
 288   0.0000       7.239005       196.9833 
 289   0.0000       7.261466       197.5945 
 290   0.0000       7.305216       198.7850 
 291   0.0000       7.327303       199.3861 
 292   0.0000       7.427742       202.1191 
 293   0.0000       7.485724       203.6969 
 294   0.0000       7.515527       204.5079 
 295   0.0000       7.721977       210.1257 
 296   0.0000       7.804606       212.3741 
 297   0.0000       7.865063       214.0192 
 298   0.0000       7.898572       214.9311 
 299   0.0000       8.036881       218.6947 
 300   0.0000       8.091691       220.1861 
 301   0.0000       8.201051       223.1619 
 302   0.0000       8.574974       233.3369 
 303   0.0000       8.615585       234.4420 
 304   0.0000       8.685478       236.3439 
 305   0.0000       8.692426       236.5329 
 306   0.0000       8.704298       236.8560 
 307   0.0000       9.023028       245.5291 
 308   0.0000       9.038813       245.9586 
 309   0.0000       9.149268       248.9642 
 310   0.0000       9.170044       249.5296 
 311   0.0000       9.214478       250.7387 
 312   0.0000       9.214541       250.7404 
 313   0.0000       9.581729       260.7321 
 314   0.0000       9.683900       263.5123 
 315   0.0000       9.744436       265.1596 
 316   0.0000       9.895556       269.2718 
 317   0.0000       9.961420       271.0640 
 318   0.0000       9.966207       271.1943 
 319   0.0000      10.022354       272.7221 
 320   0.0000      10.080329       274.2997 
 321   0.0000      10.227177       278.2956 
 322   0.0000      10.605505       288.5905 
 323   0.0000      11.219730       305.3044 
 324   0.0000      11.252833       306.2052 
 325   0.0000      11.377167       309.5885 
 326   0.0000      11.398951       310.1812 
 327   0.0000      11.432307       311.0889 
 328   0.0000      11.475625       312.2676 
 329   0.0000      11.584597       315.2329 
 330   0.0000      11.649778       317.0066 
 331   0.0000      11.718744       318.8832 
 332   0.0000      11.813469       321.4608 
 333   0.0000      11.965298       325.5923 
 334   0.0000      12.006377       326.7101 
 335   0.0000      12.008065       326.7560 
 336   0.0000      12.234011       332.9044 
 337   0.0000      12.335911       335.6772 
 338   0.0000      12.419164       337.9426 
 339   0.0000      12.427012       338.1562 
 340   0.0000      12.450532       338.7962 
 341   0.0000      12.506963       340.3318 
 342   0.0000      12.513962       340.5222 
 343   0.0000      12.583607       342.4174 
 344   0.0000      12.681067       345.0694 
 345   0.0000      12.686986       345.2305 
 346   0.0000      12.695797       345.4702 
 347   0.0000      12.703827       345.6887 
 348   0.0000      12.734222       346.5158 
 349   0.0000      12.740602       346.6894 
 350   0.0000      12.760789       347.2387 
 351   0.0000      12.819079       348.8249 
 352   0.0000      12.849957       349.6651 
 353   0.0000      12.925220       351.7131 
 354   0.0000      12.957093       352.5804 
 355   0.0000      12.988751       353.4419 
 356   0.0000      13.009178       353.9977 
 357   0.0000      13.268009       361.0409 
 358   0.0000      13.468170       366.4875 
 359   0.0000      13.468341       366.4922 
 360   0.0000      13.593269       369.8916 
 361   0.0000      13.667069       371.8999 
 362   0.0000      13.789394       375.2285 
 363   0.0000      13.961504       379.9118 
 364   0.0000      14.048576       382.2812 
 365   0.0000      14.077610       383.0712 
 366   0.0000      14.207920       386.6172 
 367   0.0000      14.289560       388.8387 
 368   0.0000      14.335258       390.0822 
 369   0.0000      14.610410       397.5695 
 370   0.0000      14.707040       400.1989 
 371   0.0000      14.933984       406.3744 
 372   0.0000      15.006451       408.3463 
 373   0.0000      15.029550       408.9748 
 374   0.0000      15.033550       409.0837 
 375   0.0000      15.130834       411.7309 
 376   0.0000      15.261528       415.2873 
 377   0.0000      15.272735       415.5922 
 378   0.0000      15.387923       418.7267 
 379   0.0000      15.488958       421.4760 
 380   0.0000      15.548737       423.1026 
 381   0.0000      15.576383       423.8549 
 382   0.0000      15.612597       424.8404 
 383   0.0000      15.687542       426.8797 
 384   0.0000      15.892643       432.4608 
 385   0.0000      15.942066       433.8057 
 386   0.0000      16.034052       436.3087 
 387   0.0000      16.144992       439.3276 
 388   0.0000      16.339813       444.6289 
 389   0.0000      16.578578       451.1260 
 390   0.0000      16.641231       452.8309 
 391   0.0000      16.650984       453.0963 
 392   0.0000      16.751235       455.8243 
 393   0.0000      16.779071       456.5817 
 394   0.0000      16.818578       457.6568 
 395   0.0000      16.899902       459.8697 
 396   0.0000      17.058774       464.1928 
 397   0.0000      17.199680       468.0271 
 398   0.0000      17.244425       469.2447 
 399   0.0000      17.400052       473.4795 
 400   0.0000      17.463961       475.2185 
 401   0.0000      17.486847       475.8413 
 402   0.0000      17.662881       480.6314 
 403   0.0000      17.719410       482.1696 
 404   0.0000      17.834123       485.2912 
 405   0.0000      18.077329       491.9091 
 406   0.0000      18.464447       502.4431 
 407   0.0000      18.913524       514.6631 
 408   0.0000      19.193173       522.2728 
 409   0.0000      19.543343       531.8014 
 410   0.0000      19.676700       535.4302 
 411   0.0000      19.806587       538.9646 
 412   0.0000      20.136505       547.9422 
 413   0.0000      20.138855       548.0061 
 414   0.0000      20.238197       550.7093 
 415   0.0000      20.266665       551.4840 
 416   0.0000      20.627509       561.3030 
 417   0.0000      20.771360       565.2174 
 418   0.0000      20.786485       565.6290 
 419   0.0000      20.844506       567.2078 
 420   0.0000      20.932574       569.6043 
 421   0.0000      21.064639       573.1980 
 422   0.0000      21.166756       575.9767 
 423   0.0000      21.854777       594.6987 
 424   0.0000      21.882506       595.4533 
 425   0.0000      22.152167       602.7911 
 426   0.0000      22.683516       617.2499 
 427   0.0000      23.614390       642.5802 
 428   0.0000      23.707962       645.1264 
 429   0.0000      23.719352       645.4364 
 430   0.0000      23.858443       649.2212 
 431   0.0000      24.360581       662.8851 
 432   0.0000      25.576698       695.9773 
 433   0.0000      25.924987       705.4548 
 434   0.0000      27.374598       744.9007 
 435   0.0000      28.126602       765.3638 
 436   0.0000      28.653255       779.6947 
 437   0.0000      30.441690       828.3605 
 438   0.0000      30.512006       830.2739 
 439   0.0000      30.770488       837.3076 
 440   0.0000      30.852158       839.5299 
 441   0.0000      31.861164       866.9863 
 442   0.0000      41.404518      1126.6742 
 443   0.0000      41.546574      1130.5398 
 444   0.0000      41.764320      1136.4649 
 445   0.0000      41.834248      1138.3678 
 446   0.0000      42.048718      1144.2038 
 447   0.0000      43.875426      1193.9110 
 448   0.0000      48.049172      1307.4844 
 449   0.0000      48.118633      1309.3746 
 450   0.0000      48.302591      1314.3803 
 451   0.0000      48.922718      1331.2548 
 452   0.0000      49.278770      1340.9435 
 453   0.0000      91.057649      2477.8046 
 454   0.0000      91.120920      2479.5263 
 455   0.0000      91.154364      2480.4363 
 456   0.0000      91.244859      2482.8988 
 457   0.0000      91.344700      2485.6157 
 458   0.0000      91.388447      2486.8061 
 459   0.0000      91.552567      2491.2720 
 460   0.0000      91.614533      2492.9582 
 461   0.0000      92.255516      2510.4002 
 462   0.0000      92.843197      2526.3918 
 463   0.0000      92.978489      2530.0733 
 464   0.0000     105.703643      2876.3423 
 465   0.0000     202.207131      5502.3358 

                 SPIN DOWN ORBITALS
  NO   OCC          E(Eh)            E(eV) 
   0   1.0000     -24.265332      -660.2932 
   1   1.0000     -14.062518      -382.6606 
   2   1.0000      -1.115017       -30.3411 
   3   1.0000      -0.775402       -21.0998 
   4   1.0000      -0.485649       -13.2152 
   5   1.0000      -0.477752       -13.0003 
   6   1.0000      -0.387445       -10.5429 
   7   1.0000      -0.323526        -8.8036 
   8   1.0000      -0.238597        -6.4925 
   9   0.0000      -0.036794        -1.0012 
  10   0.0000      -0.026638        -0.7248 
  11   0.0000       0.009604         0.2613 
  12   0.0000       0.022455         0.6110 
  13   0.0000       0.033411         0.9092 
  14   0.0000       0.038667         1.0522 
  15   0.0000       0.050861         1.3840 
  16   0.0000       0.055080         1.4988 
  17   0.0000       0.061547         1.6748 
  18   0.0000       0.069101         1.8803 
  19   0.0000       0.070723         1.9245 
  20   0.0000       0.074540         2.0283 
  21   0.0000       0.089537         2.4364 
  22   0.0000       0.105168         2.8618 
  23   0.0000       0.118994         3.2380 
  24   0.0000       0.123137         3.3507 
  25   0.0000       0.129369         3.5203 
  26   0.0000       0.141907         3.8615 
  27   0.0000       0.147275         4.0075 
  28   0.0000       0.157261         4.2793 
  29   0.0000       0.161605         4.3975 
  30   0.0000       0.165994         4.5169 
  31   0.0000       0.169716         4.6182 
  32   0.0000       0.175072         4.7640 
  33   0.0000       0.182964         4.9787 
  34   0.0000       0.194802         5.3008 
  35   0.0000       0.194969         5.3054 
  36   0.0000       0.205342         5.5876 
  37   0.0000       0.226517         6.1638 
  38   0.0000       0.233867         6.3638 
  39   0.0000       0.235610         6.4113 
  40   0.0000       0.241247         6.5647 
  41   0.0000       0.248217         6.7543 
  42   0.0000       0.255942         6.9645 
  43   0.0000       0.266249         7.2450 
  44   0.0000       0.267438         7.2773 
  45   0.0000       0.279551         7.6070 
  46   0.0000       0.281722         7.6660 
  47   0.0000       0.285171         7.7599 
  48   0.0000       0.296652         8.0723 
  49   0.0000       0.307750         8.3743 
  50   0.0000       0.309253         8.4152 
  51   0.0000       0.328425         8.9369 
  52   0.0000       0.338950         9.2233 
  53   0.0000       0.345148         9.3920 
  54   0.0000       0.360967         9.8224 
  55   0.0000       0.372432        10.1344 
  56   0.0000       0.377410        10.2699 
  57   0.0000       0.385842        10.4993 
  58   0.0000       0.395642        10.7660 
  59   0.0000       0.397082        10.8052 
  60   0.0000       0.403822        10.9886 
  61   0.0000       0.409637        11.1468 
  62   0.0000       0.410311        11.1651 
  63   0.0000       0.418525        11.3886 
  64   0.0000       0.422351        11.4928 
  65   0.0000       0.426985        11.6189 
  66   0.0000       0.434277        11.8173 
  67   0.0000       0.436269        11.8715 
  68   0.0000       0.450153        12.2493 
  69   0.0000       0.455214        12.3870 
  70   0.0000       0.461050        12.5458 
  71   0.0000       0.467633        12.7249 
  72   0.0000       0.472475        12.8567 
  73   0.0000       0.483637        13.1604 
  74   0.0000       0.486637        13.2421 
  75   0.0000       0.487913        13.2768 
  76   0.0000       0.502854        13.6833 
  77   0.0000       0.510222        13.8838 
  78   0.0000       0.515460        14.0264 
  79   0.0000       0.523535        14.2461 
  80   0.0000       0.539335        14.6760 
  81   0.0000       0.567483        15.4420 
  82   0.0000       0.568662        15.4741 
  83   0.0000       0.585829        15.9412 
  84   0.0000       0.608966        16.5708 
  85   0.0000       0.621900        16.9228 
  86   0.0000       0.628543        17.1035 
  87   0.0000       0.642419        17.4811 
  88   0.0000       0.644844        17.5471 
  89   0.0000       0.661750        18.0071 
  90   0.0000       0.664061        18.0700 
  91   0.0000       0.668803        18.1991 
  92   0.0000       0.671688        18.2775 
  93   0.0000       0.675849        18.3908 
  94   0.0000       0.678471        18.4621 
  95   0.0000       0.683521        18.5995 
  96   0.0000       0.687324        18.7030 
  97   0.0000       0.695504        18.9256 
  98   0.0000       0.698258        19.0006 
  99   0.0000       0.713351        19.4113 
 100   0.0000       0.715128        19.4596 
 101   0.0000       0.725190        19.7334 
 102   0.0000       0.728342        19.8192 
 103   0.0000       0.730953        19.8902 
 104   0.0000       0.742444        20.2029 
 105   0.0000       0.751408        20.4469 
 106   0.0000       0.757499        20.6126 
 107   0.0000       0.779073        21.1997 
 108   0.0000       0.780644        21.2424 
 109   0.0000       0.795741        21.6532 
 110   0.0000       0.805651        21.9229 
 111   0.0000       0.809989        22.0409 
 112   0.0000       0.810220        22.0472 
 113   0.0000       0.816391        22.2151 
 114   0.0000       0.817908        22.2564 
 115   0.0000       0.832269        22.6472 
 116   0.0000       0.845985        23.0204 
 117   0.0000       0.858738        23.3675 
 118   0.0000       0.860895        23.4262 
 119   0.0000       0.873535        23.7701 
 120   0.0000       0.884656        24.0727 
 121   0.0000       0.885113        24.0851 
 122   0.0000       0.887902        24.1610 
 123   0.0000       0.921051        25.0631 
 124   0.0000       0.927806        25.2469 
 125   0.0000       0.928876        25.2760 
 126   0.0000       0.931382        25.3442 
 127   0.0000       0.952099        25.9079 
 128   0.0000       0.970264        26.4022 
 129   0.0000       0.975698        26.5501 
 130   0.0000       0.982066        26.7234 
 131   0.0000       0.992429        27.0054 
 132   0.0000       1.002078        27.2679 
 133   0.0000       1.006522        27.3889 
 134   0.0000       1.009562        27.4716 
 135   0.0000       1.031477        28.0679 
 136   0.0000       1.036649        28.2086 
 137   0.0000       1.053377        28.6639 
 138   0.0000       1.068839        29.0846 
 139   0.0000       1.096897        29.8481 
 140   0.0000       1.110371        30.2147 
 141   0.0000       1.126239        30.6465 
 142   0.0000       1.138446        30.9787 
 143   0.0000       1.164481        31.6871 
 144   0.0000       1.172078        31.8939 
 145   0.0000       1.194149        32.4944 
 146   0.0000       1.229222        33.4488 
 147   0.0000       1.232519        33.5386 
 148   0.0000       1.258214        34.2378 
 149   0.0000       1.267643        34.4943 
 150   0.0000       1.291907        35.1546 
 151   0.0000       1.293903        35.2089 
 152   0.0000       1.304219        35.4896 
 153   0.0000       1.322568        35.9889 
 154   0.0000       1.326941        36.1079 
 155   0.0000       1.361194        37.0400 
 156   0.0000       1.365596        37.1598 
 157   0.0000       1.380728        37.5715 
 158   0.0000       1.396052        37.9885 
 159   0.0000       1.401436        38.1350 
 160   0.0000       1.405989        38.2589 
 161   0.0000       1.421877        38.6913 
 162   0.0000       1.452457        39.5234 
 163   0.0000       1.462339        39.7923 
 164   0.0000       1.466740        39.9120 
 165   0.0000       1.479088        40.2480 
 166   0.0000       1.503007        40.8989 
 167   0.0000       1.512849        41.1667 
 168   0.0000       1.524285        41.4779 
 169   0.0000       1.538287        41.8589 
 170   0.0000       1.545458        42.0540 
 171   0.0000       1.567116        42.6434 
 172   0.0000       1.579340        42.9760 
 173   0.0000       1.597688        43.4753 
 174   0.0000       1.652864        44.9767 
 175   0.0000       1.656133        45.0657 
 176   0.0000       1.685568        45.8666 
 177   0.0000       1.686410        45.8895 
 178   0.0000       1.728740        47.0414 
 179   0.0000       1.753218        47.7075 
 180   0.0000       1.771781        48.2126 
 181   0.0000       1.790726        48.7281 
 182   0.0000       1.817763        49.4638 
 183   0.0000       1.827618        49.7320 
 184   0.0000       1.845778        50.2262 
 185   0.0000       1.901418        51.7402 
 186   0.0000       1.919649        52.2363 
 187   0.0000       1.925748        52.4023 
 188   0.0000       1.938802        52.7575 
 189   0.0000       2.045379        55.6576 
 190   0.0000       2.119586        57.6769 
 191   0.0000       2.190596        59.6091 
 192   0.0000       2.190983        59.6197 
 193   0.0000       2.251647        61.2704 
 194   0.0000       2.282317        62.1050 
 195   0.0000       2.352068        64.0030 
 196   0.0000       2.372265        64.5526 
 197   0.0000       2.408061        65.5267 
 198   0.0000       2.409776        65.5733 
 199   0.0000       2.443566        66.4928 
 200   0.0000       2.467813        67.1526 
 201   0.0000       2.471298        67.2474 
 202   0.0000       2.501138        68.0594 
 203   0.0000       2.565591        69.8133 
 204   0.0000       2.610274        71.0292 
 205   0.0000       2.654215        72.2249 
 206   0.0000       2.702332        73.5342 
 207   0.0000       2.743251        74.6477 
 208   0.0000       2.753082        74.9152 
 209   0.0000       2.789457        75.9050 
 210   0.0000       2.832049        77.0640 
 211   0.0000       2.839285        77.2609 
 212   0.0000       2.881297        78.4041 
 213   0.0000       3.011403        81.9444 
 214   0.0000       3.068617        83.5013 
 215   0.0000       3.124913        85.0332 
 216   0.0000       3.152862        85.7937 
 217   0.0000       3.210847        87.3716 
 218   0.0000       3.227998        87.8383 
 219   0.0000       3.261117        88.7395 
 220   0.0000       3.297061        89.7176 
 221   0.0000       3.343721        90.9873 
 222   0.0000       3.394048        92.3568 
 223   0.0000       3.430150        93.3391 
 224   0.0000       3.519900        95.7813 
 225   0.0000       3.530105        96.0590 
 226   0.0000       3.549539        96.5879 
 227   0.0000       3.638638        99.0124 
 228   0.0000       3.656485        99.4980 
 229   0.0000       3.685805       100.2958 
 230   0.0000       3.770315       102.5955 
 231   0.0000       3.798020       103.3494 
 232   0.0000       3.842224       104.5522 
 233   0.0000       3.885347       105.7257 
 234   0.0000       3.897029       106.0436 
 235   0.0000       3.945114       107.3520 
 236   0.0000       3.971692       108.0752 
 237   0.0000       4.015929       109.2790 
 238   0.0000       4.088391       111.2508 
 239   0.0000       4.097762       111.5058 
 240   0.0000       4.204957       114.4227 
 241   0.0000       4.229696       115.0959 
 242   0.0000       4.292964       116.8175 
 243   0.0000       4.325960       117.7154 
 244   0.0000       4.373620       119.0123 
 245   0.0000       4.546654       123.7207 
 246   0.0000       4.646361       126.4339 
 247   0.0000       4.717129       128.3596 
 248   0.0000       4.750489       129.2674 
 249   0.0000       4.857016       132.1661 
 250   0.0000       4.907344       133.5356 
 251   0.0000       4.950811       134.7184 
 252   0.0000       5.033535       136.9694 
 253   0.0000       5.045527       137.2958 
 254   0.0000       5.170460       140.6954 
 255   0.0000       5.241610       142.6315 
 256   0.0000       5.374580       146.2498 
 257   0.0000       5.401343       146.9780 
 258   0.0000       5.431567       147.8004 
 259   0.0000       5.457475       148.5054 
 260   0.0000       5.667120       154.2102 
 261   0.0000       5.672809       154.3650 
 262   0.0000       5.714705       155.5050 
 263   0.0000       5.748844       156.4340 
 264   0.0000       5.785578       157.4336 
 265   0.0000       5.824985       158.5059 
 266   0.0000       5.844509       159.0372 
 267   0.0000       5.897531       160.4800 
 268   0.0000       5.987502       162.9282 
 269   0.0000       6.014919       163.6743 
 270   0.0000       6.095450       165.8656 
 271   0.0000       6.122304       166.5964 
 272   0.0000       6.170156       167.8985 
 273   0.0000       6.181588       168.2096 
 274   0.0000       6.191514       168.4796 
 275   0.0000       6.258100       170.2916 
 276   0.0000       6.271774       170.6637 
 277   0.0000       6.289296       171.1405 
 278   0.0000       6.356374       172.9657 
 279   0.0000       6.379003       173.5815 
 280   0.0000       6.579096       179.0263 
 281   0.0000       6.607445       179.7977 
 282   0.0000       6.685428       181.9197 
 283   0.0000       6.734858       183.2648 
 284   0.0000       6.925789       188.4603 
 285   0.0000       6.947968       189.0638 
 286   0.0000       7.134043       194.1272 
 287   0.0000       7.155417       194.7088 
 288   0.0000       7.239005       196.9833 
 289   0.0000       7.261466       197.5945 
 290   0.0000       7.305216       198.7850 
 291   0.0000       7.327303       199.3861 
 292   0.0000       7.427742       202.1191 
 293   0.0000       7.485724       203.6969 
 294   0.0000       7.515527       204.5079 
 295   0.0000       7.721977       210.1257 
 296   0.0000       7.804606       212.3741 
 297   0.0000       7.865063       214.0192 
 298   0.0000       7.898572       214.9311 
 299   0.0000       8.036881       218.6947 
 300   0.0000       8.091691       220.1861 
 301   0.0000       8.201051       223.1619 
 302   0.0000       8.574974       233.3369 
 303   0.0000       8.615585       234.4420 
 304   0.0000       8.685478       236.3439 
 305   0.0000       8.692426       236.5329 
 306   0.0000       8.704298       236.8560 
 307   0.0000       9.023028       245.5291 
 308   0.0000       9.038813       245.9586 
 309   0.0000       9.149268       248.9642 
 310   0.0000       9.170044       249.5296 
 311   0.0000       9.214478       250.7387 
 312   0.0000       9.214541       250.7404 
 313   0.0000       9.581729       260.7321 
 314   0.0000       9.683900       263.5123 
 315   0.0000       9.744436       265.1596 
 316   0.0000       9.895556       269.2718 
 317   0.0000       9.961420       271.0640 
 318   0.0000       9.966207       271.1943 
 319   0.0000      10.022354       272.7221 
 320   0.0000      10.080329       274.2997 
 321   0.0000      10.227177       278.2956 
 322   0.0000      10.605505       288.5905 
 323   0.0000      11.219730       305.3044 
 324   0.0000      11.252833       306.2052 
 325   0.0000      11.377167       309.5885 
 326   0.0000      11.398951       310.1812 
 327   0.0000      11.432307       311.0889 
 328   0.0000      11.475625       312.2676 
 329   0.0000      11.584597       315.2329 
 330   0.0000      11.649778       317.0066 
 331   0.0000      11.718744       318.8832 
 332   0.0000      11.813469       321.4608 
 333   0.0000      11.965298       325.5923 
 334   0.0000      12.006377       326.7101 
 335   0.0000      12.008065       326.7560 
 336   0.0000      12.234011       332.9044 
 337   0.0000      12.335911       335.6772 
 338   0.0000      12.419164       337.9426 
 339   0.0000      12.427012       338.1562 
 340   0.0000      12.450532       338.7962 
 341   0.0000      12.506963       340.3318 
 342   0.0000      12.513962       340.5222 
 343   0.0000      12.583607       342.4174 
 344   0.0000      12.681067       345.0694 
 345   0.0000      12.686986       345.2305 
 346   0.0000      12.695797       345.4702 
 347   0.0000      12.703827       345.6887 
 348   0.0000      12.734222       346.5158 
 349   0.0000      12.740602       346.6894 
 350   0.0000      12.760789       347.2387 
 351   0.0000      12.819079       348.8249 
 352   0.0000      12.849957       349.6651 
 353   0.0000      12.925220       351.7131 
 354   0.0000      12.957093       352.5804 
 355   0.0000      12.988751       353.4419 
 356   0.0000      13.009178       353.9977 
 357   0.0000      13.268009       361.0409 
 358   0.0000      13.468170       366.4875 
 359   0.0000      13.468341       366.4922 
 360   0.0000      13.593269       369.8916 
 361   0.0000      13.667069       371.8999 
 362   0.0000      13.789394       375.2285 
 363   0.0000      13.961504       379.9118 
 364   0.0000      14.048576       382.2812 
 365   0.0000      14.077610       383.0712 
 366   0.0000      14.207920       386.6172 
 367   0.0000      14.289560       388.8387 
 368   0.0000      14.335258       390.0822 
 369   0.0000      14.610410       397.5695 
 370   0.0000      14.707040       400.1989 
 371   0.0000      14.933984       406.3744 
 372   0.0000      15.006451       408.3463 
 373   0.0000      15.029550       408.9748 
 374   0.0000      15.033550       409.0837 
 375   0.0000      15.130834       411.7309 
 376   0.0000      15.261528       415.2873 
 377   0.0000      15.272735       415.5922 
 378   0.0000      15.387923       418.7267 
 379   0.0000      15.488958       421.4760 
 380   0.0000      15.548737       423.1026 
 381   0.0000      15.576383       423.8549 
 382   0.0000      15.612597       424.8404 
 383   0.0000      15.687542       426.8797 
 384   0.0000      15.892643       432.4608 
 385   0.0000      15.942066       433.8057 
 386   0.0000      16.034052       436.3087 
 387   0.0000      16.144992       439.3276 
 388   0.0000      16.339813       444.6289 
 389   0.0000      16.578578       451.1260 
 390   0.0000      16.641231       452.8309 
 391   0.0000      16.650984       453.0963 
 392   0.0000      16.751235       455.8243 
 393   0.0000      16.779071       456.5817 
 394   0.0000      16.818578       457.6568 
 395   0.0000      16.899902       459.8697 
 396   0.0000      17.058774       464.1928 
 397   0.0000      17.199680       468.0271 
 398   0.0000      17.244425       469.2447 
 399   0.0000      17.400052       473.4795 
 400   0.0000      17.463961       475.2185 
 401   0.0000      17.486847       475.8413 
 402   0.0000      17.662881       480.6314 
 403   0.0000      17.719410       482.1696 
 404   0.0000      17.834123       485.2912 
 405   0.0000      18.077329       491.9091 
 406   0.0000      18.464447       502.4431 
 407   0.0000      18.913524       514.6631 
 408   0.0000      19.193173       522.2728 
 409   0.0000      19.543343       531.8014 
 410   0.0000      19.676700       535.4302 
 411   0.0000      19.806587       538.9646 
 412   0.0000      20.136505       547.9422 
 413   0.0000      20.138855       548.0061 
 414   0.0000      20.238197       550.7093 
 415   0.0000      20.266665       551.4840 
 416   0.0000      20.627509       561.3030 
 417   0.0000      20.771360       565.2174 
 418   0.0000      20.786485       565.6290 
 419   0.0000      20.844506       567.2078 
 420   0.0000      20.932574       569.6043 
 421   0.0000      21.064639       573.1980 
 422   0.0000      21.166756       575.9767 
 423   0.0000      21.854777       594.6987 
 424   0.0000      21.882506       595.4533 
 425   0.0000      22.152167       602.7911 
 426   0.0000      22.683516       617.2499 
 427   0.0000      23.614390       642.5802 
 428   0.0000      23.707962       645.1264 
 429   0.0000      23.719352       645.4364 
 430   0.0000      23.858443       649.2212 
 431   0.0000      24.360581       662.8851 
 432   0.0000      25.576698       695.9773 
 433   0.0000      25.924987       705.4548 
 434   0.0000      27.374598       744.9007 
 435   0.0000      28.126602       765.3638 
 436   0.0000      28.653255       779.6947 
 437   0.0000      30.441690       828.3605 
 438   0.0000      30.512006       830.2739 
 439   0.0000      30.770488       837.3076 
 440   0.0000      30.852158       839.5299 
 441   0.0000      31.861164       866.9863 
 442   0.0000      41.404518      1126.6742 
 443   0.0000      41.546574      1130.5398 
 444   0.0000      41.764320      1136.4649 
 445   0.0000      41.834248      1138.3678 
 446   0.0000      42.048718      1144.2038 
 447   0.0000      43.875426      1193.9110 
 448   0.0000      48.049172      1307.4844 
 449   0.0000      48.118633      1309.3746 
 450   0.0000      48.302591      1314.3803 
 451   0.0000      48.922718      1331.2548 
 452   0.0000      49.278770      1340.9435 
 453   0.0000      91.057649      2477.8046 
 454   0.0000      91.120920      2479.5263 
 455   0.0000      91.154364      2480.4363 
 456   0.0000      91.244859      2482.8988 
 457   0.0000      91.344700      2485.6157 
 458   0.0000      91.388447      2486.8061 
 459   0.0000      91.552567      2491.2720 
 460   0.0000      91.614533      2492.9582 
 461   0.0000      92.255516      2510.4002 
 462   0.0000      92.843197      2526.3918 
 463   0.0000      92.978489      2530.0733 
 464   0.0000     105.703643      2876.3423 
 465   0.0000     202.207131      5502.3358 

                    ********************************
                    * MULLIKEN POPULATION ANALYSIS *
                    ********************************

--------------------------------------------
MULLIKEN ATOMIC CHARGES AND SPIN POPULATIONS
--------------------------------------------
   0 N :   -0.026793    0.000000
   1 H :    0.139039   -0.000000
   2 H :    0.139093   -0.000000
   3 F :   -0.251339   -0.000000
Sum of atomic charges         :    0.0000000
Sum of atomic spin populations:   -0.0000000

-----------------------------------------------------
MULLIKEN REDUCED ORBITAL CHARGES AND SPIN POPULATIONS
-----------------------------------------------------
CHARGE
  0 N s       :     3.556647  s :     3.556647
      pz      :     1.207929  p :     3.384760
      px      :     1.260869
      py      :     0.915962
      dz2     :     0.019846  d :     0.068584
      dxz     :     0.005023
      dyz     :     0.009597
      dx2y2   :     0.024724
      dxy     :     0.009394
      f0      :     0.001901  f :     0.014361
      f+1     :     0.000357
      f-1     :     0.002309
      f+2     :     0.002115
      f-2     :     0.001025
      f+3     :     0.002995
      f-3     :     0.003660
      g0      :     0.000352  g :     0.002197
      g+1     :     0.000091
      g-1     :     0.000282
      g+2     :     0.000148
      g-2     :     0.000103
      g+3     :     0.000111
      g-3     :     0.000185
      g+4     :     0.000566
      g-4     :     0.000359
      h0      :     0.000029  h :     0.000242
      h+1     :    -0.000003
      h-1     :     0.000027
      h+2     :     0.000031
      h-2     :     0.000010
      h+3     :     0.000005
      h-3     :     0.000020
      h+4     :     0.000007
      h-4     :     0.000009
      h+5     :     0.000054
      h-5     :     0.000051
  1 H s       :     0.786954  s :     0.786954
      pz      :     0.027234  p :     0.064330
      px      :     0.019762
      py      :     0.017333
      dz2     :     0.002281  d :     0.008020
      dxz     :     0.001685
      dyz     :     0.002781
      dx2y2   :     0.000431
      dxy     :     0.000842
      f0      :     0.000192  f :     0.001386
      f+1     :     0.000420
      f-1     :     0.000860
      f+2     :     0.000395
      f-2     :     0.000110
      f+3     :    -0.000266
      f-3     :    -0.000325
      g0      :    -0.000054  g :     0.000272
      g+1     :     0.000069
      g-1     :     0.000230
      g+2     :     0.000144
      g-2     :     0.000049
      g+3     :    -0.000046
      g-3     :    -0.000058
      g+4     :    -0.000078
      g-4     :     0.000015
  2 H s       :     0.786917  s :     0.786917
      pz      :     0.017606  p :     0.064314
      px      :     0.029374
      py      :     0.017334
      dz2     :     0.001080  d :     0.008019
      dxz     :     0.001654
      dyz     :     0.000890
      dx2y2   :     0.001661
      dxy     :     0.002734
      f0      :    -0.000107  f :     0.001386
      f+1     :     0.000108
      f-1     :    -0.000095
      f+2     :     0.000218
      f-2     :    -0.000016
      f+3     :     0.000521
      f-3     :     0.000756
      g0      :     0.000033  g :     0.000272
      g+1     :     0.000016
      g-1     :     0.000021
      g+2     :    -0.000005
      g-2     :    -0.000018
      g+3     :    -0.000009
      g-3     :     0.000016
      g+4     :     0.000000
      g-4     :     0.000218
  3 F s       :     3.959364  s :     3.959364
      pz      :     1.942212  p :     5.248255
      px      :     1.921313
      py      :     1.384730
      dz2     :     0.005087  d :     0.035284
      dxz     :    -0.000574
      dyz     :     0.009157
      dx2y2   :     0.011868
      dxy     :     0.009747
      f0      :     0.000946  f :     0.006650
      f+1     :    -0.000086
      f-1     :     0.001074
      f+2     :     0.000894
      f-2     :     0.000110
      f+3     :     0.002030
      f-3     :     0.001680
      g0      :     0.000090  g :     0.001431
      g+1     :     0.000050
      g-1     :     0.000200
      g+2     :     0.000170
      g-2     :    -0.000125
      g+3     :     0.000219
      g-3     :     0.000038
      g+4     :     0.000576
      g-4     :     0.000213
      h0      :     0.000006  h :     0.000355
      h+1     :    -0.000005
      h-1     :     0.000046
      h+2     :     0.000010
      h-2     :     0.000022
      h+3     :    -0.000007
      h-3     :     0.000030
      h+4     :     0.000036
      h-4     :     0.000057
      h+5     :     0.000015
      h-5     :     0.000145

SPIN
  0 N s       :     0.000000  s :     0.000000
      pz      :     0.000000  p :     0.000000
      px      :     0.000000
      py      :     0.000000
      dz2     :     0.000000  d :     0.000000
      dxz     :     0.000000
      dyz     :    -0.000000
      dx2y2   :     0.000000
      dxy     :     0.000000
      f0      :    -0.000000  f :    -0.000000
      f+1     :    -0.000000
      f-1     :    -0.000000
      f+2     :     0.000000
      f-2     :    -0.000000
      f+3     :    -0.000000
      f-3     :    -0.000000
      g0      :     0.000000  g :    -0.000000
      g+1     :    -0.000000
      g-1     :    -0.000000
      g+2     :    -0.000000
      g-2     :    -0.000000
      g+3     :     0.000000
      g-3     :    -0.000000
      g+4     :    -0.000000
      g-4     :    -0.000000
      h0      :     0.000000  h :     0.000000
      h+1     :    -0.000000
      h-1     :     0.000000
      h+2     :     0.000000
      h-2     :    -0.000000
      h+3     :    -0.000000
      h-3     :    -0.000000
      h+4     :    -0.000000
      h-4     :    -0.000000
      h+5     :    -0.000000
      h-5     :     0.000000
  1 H s       :    -0.000000  s :    -0.000000
      pz      :    -0.000000  p :    -0.000000
      px      :    -0.000000
      py      :     0.000000
      dz2     :     0.000000  d :    -0.000000
      dxz     :    -0.000000
      dyz     :    -0.000000
      dx2y2   :     0.000000
      dxy     :     0.000000
      f0      :     0.000000  f :     0.000000
      f+1     :    -0.000000
      f-1     :    -0.000000
      f+2     :     0.000000
      f-2     :     0.000000
      f+3     :     0.000000
      f-3     :     0.000000
      g0      :     0.000000  g :     0.000000
      g+1     :     0.000000
      g-1     :    -0.000000
      g+2     :    -0.000000
      g-2     :     0.000000
      g+3     :     0.000000
      g-3     :     0.000000
      g+4     :    -0.000000
      g-4     :     0.000000
  2 H s       :    -0.000000  s :    -0.000000
      pz      :     0.000000  p :    -0.000000
      px      :    -0.000000
      py      :    -0.000000
      dz2     :    -0.000000  d :    -0.000000
      dxz     :    -0.000000
      dyz     :     0.000000
      dx2y2   :    -0.000000
      dxy     :    -0.000000
      f0      :    -0.000000  f :    -0.000000
      f+1     :    -0.000000
      f-1     :    -0.000000
      f+2     :    -0.000000
      f-2     :     0.000000
      f+3     :    -0.000000
      f-3     :     0.000000
      g0      :    -0.000000  g :     0.000000
      g+1     :    -0.000000
      g-1     :     0.000000
      g+2     :     0.000000
      g-2     :    -0.000000
      g+3     :     0.000000
      g-3     :     0.000000
      g+4     :    -0.000000
      g-4     :     0.000000
  3 F s       :     0.000000  s :     0.000000
      pz      :     0.000000  p :    -0.000000
      px      :    -0.000000
      py      :    -0.000000
      dz2     :    -0.000000  d :    -0.000000
      dxz     :    -0.000000
      dyz     :    -0.000000
      dx2y2   :    -0.000000
      dxy     :    -0.000000
      f0      :    -0.000000  f :    -0.000000
      f+1     :     0.000000
      f-1     :     0.000000
      f+2     :     0.000000
      f-2     :    -0.000000
      f+3     :    -0.000000
      f-3     :    -0.000000
      g0      :     0.000000  g :     0.000000
      g+1     :    -0.000000
      g-1     :     0.000000
      g+2     :    -0.000000
      g-2     :     0.000000
      g+3     :    -0.000000
      g-3     :     0.000000
      g+4     :     0.000000
      g-4     :    -0.000000
      h0      :     0.000000  h :     0.000000
      h+1     :     0.000000
      h-1     :     0.000000
      h+2     :     0.000000
      h-2     :     0.000000
      h+3     :     0.000000
      h-3     :    -0.000000
      h+4     :     0.000000
      h-4     :    -0.000000
      h+5     :    -0.000000
      h-5     :     0.000000


                     *******************************
                     * LOEWDIN POPULATION ANALYSIS *
                     *******************************

-------------------------------------------
LOEWDIN ATOMIC CHARGES AND SPIN POPULATIONS
-------------------------------------------
   0 N :    0.868037    0.000000
   1 H :   -0.543666   -0.000000
   2 H :   -0.543666   -0.000000
   3 F :    0.219294    0.000000

----------------------------------------------------
LOEWDIN REDUCED ORBITAL CHARGES AND SPIN POPULATIONS
----------------------------------------------------
CHARGE
  0 N s       :     2.715290  s :     2.715290
      pz      :     0.945635  p :     2.644568
      px      :     0.962786
      py      :     0.736147
      dz2     :     0.098260  d :     0.457067
      dxz     :     0.019331
      dyz     :     0.093091
      dx2y2   :     0.145622
      dxy     :     0.100763
      f0      :     0.030242  f :     0.220593
      f+1     :     0.005602
      f-1     :     0.032241
      f+2     :     0.033516
      f-2     :     0.014181
      f+3     :     0.056013
      f-3     :     0.048797
      g0      :     0.004930  g :     0.066182
      g+1     :     0.001018
      g-1     :     0.007992
      g+2     :     0.007760
      g-2     :     0.003717
      g+3     :     0.006665
      g-3     :     0.006495
      g+4     :     0.015106
      g-4     :     0.012498
      h0      :     0.001541  h :     0.028262
      h+1     :     0.000545
      h-1     :     0.003569
      h+2     :     0.002051
      h-2     :     0.001176
      h+3     :     0.001871
      h-3     :     0.001612
      h+4     :     0.002440
      h-4     :     0.003168
      h+5     :     0.004090
      h-5     :     0.006196
  1 H s       :     0.606564  s :     0.606564
      pz      :     0.215990  p :     0.411683
      px      :     0.111461
      py      :     0.084231
      dz2     :     0.092840  d :     0.323177
      dxz     :     0.108694
      dyz     :     0.095754
      dx2y2   :     0.015523
      dxy     :     0.010366
      f0      :     0.024382  f :     0.131865
      f+1     :     0.031642
      f-1     :     0.036248
      f+2     :     0.016126
      f-2     :     0.012796
      f+3     :     0.005553
      f-3     :     0.005117
      g0      :     0.007480  g :     0.070377
      g+1     :     0.004361
      g-1     :     0.015413
      g+2     :     0.012484
      g-2     :     0.008112
      g+3     :     0.009939
      g-3     :     0.008971
      g+4     :     0.002047
      g-4     :     0.001571
  2 H s       :     0.606564  s :     0.606564
      pz      :     0.110394  p :     0.411683
      px      :     0.217057
      py      :     0.084231
      dz2     :     0.054530  d :     0.323177
      dxz     :     0.089407
      dyz     :     0.011376
      dx2y2   :     0.073120
      dxy     :     0.094744
      f0      :     0.011596  f :     0.131865
      f+1     :     0.025406
      f-1     :     0.007097
      f+2     :     0.014658
      f-2     :     0.013737
      f+3     :     0.026043
      f-3     :     0.033328
      g0      :     0.004270  g :     0.070377
      g+1     :     0.006748
      g-1     :     0.004382
      g+2     :     0.004201
      g-2     :     0.007430
      g+3     :     0.006012
      g-3     :     0.004801
      g+4     :     0.015078
      g-4     :     0.017455
  3 F s       :     3.397299  s :     3.397299
      pz      :     1.690398  p :     4.735751
      px      :     1.683055
      py      :     1.362298
      dz2     :     0.042410  d :     0.316805
      dxz     :     0.011252
      dyz     :     0.079353
      dx2y2   :     0.100193
      dxy     :     0.083598
      f0      :     0.012305  f :     0.192854
      f+1     :     0.008339
      f-1     :     0.039965
      f+2     :     0.027619
      f-2     :     0.014094
      f+3     :     0.033889
      f-3     :     0.056643
      g0      :     0.011592  g :     0.096424
      g+1     :     0.000671
      g-1     :     0.004036
      g+2     :     0.014614
      g-2     :     0.010507
      g+3     :     0.008679
      g-3     :     0.008231
      g+4     :     0.030820
      g-4     :     0.007273
      h0      :     0.000338  h :     0.041573
      h+1     :     0.001354
      h-1     :     0.006778
      h+2     :     0.000722
      h-2     :     0.000425
      h+3     :     0.006173
      h-3     :     0.005233
      h+4     :     0.002965
      h-4     :     0.003640
      h+5     :     0.002375
      h-5     :     0.011569

SPIN
  0 N s       :     0.000000  s :     0.000000
      pz      :    -0.000000  p :     0.000000
      px      :     0.000000
      py      :     0.000000
      dz2     :     0.000000  d :    -0.000000
      dxz     :     0.000000
      dyz     :    -0.000000
      dx2y2   :     0.000000
      dxy     :    -0.000000
      f0      :    -0.000000  f :    -0.000000
      f+1     :    -0.000000
      f-1     :    -0.000000
      f+2     :    -0.000000
      f-2     :     0.000000
      f+3     :     0.000000
      f-3     :    -0.000000
      g0      :     0.000000  g :    -0.000000
      g+1     :    -0.000000
      g-1     :    -0.000000
      g+2     :     0.000000
      g-2     :    -0.000000
      g+3     :     0.000000
      g-3     :    -0.000000
      g+4     :     0.000000
      g-4     :    -0.000000
      h0      :     0.000000  h :    -0.000000
      h+1     :     0.000000
      h-1     :    -0.000000
      h+2     :     0.000000
      h-2     :     0.000000
      h+3     :    -0.000000
      h-3     :    -0.000000
      h+4     :     0.000000
      h-4     :    -0.000000
      h+5     :     0.000000
      h-5     :     0.000000
  1 H s       :    -0.000000  s :    -0.000000
      pz      :    -0.000000  p :    -0.000000
      px      :    -0.000000
      py      :     0.000000
      dz2     :    -0.000000  d :     0.000000
      dxz     :     0.000000
      dyz     :     0.000000
      dx2y2   :     0.000000
      dxy     :     0.000000
      f0      :     0.000000  f :    -0.000000
      f+1     :     0.000000
      f-1     :    -0.000000
      f+2     :    -0.000000
      f-2     :     0.000000
      f+3     :    -0.000000
      f-3     :     0.000000
      g0      :     0.000000  g :     0.000000
      g+1     :     0.000000
      g-1     :     0.000000
      g+2     :    -0.000000
      g-2     :    -0.000000
      g+3     :     0.000000
      g-3     :     0.000000
      g+4     :    -0.000000
      g-4     :     0.000000
  2 H s       :    -0.000000  s :    -0.000000
      pz      :     0.000000  p :    -0.000000
      px      :    -0.000000
      py      :    -0.000000
      dz2     :    -0.000000  d :    -0.000000
      dxz     :    -0.000000
      dyz     :     0.000000
      dx2y2   :     0.000000
      dxy     :    -0.000000
      f0      :     0.000000  f :    -0.000000
      f+1     :    -0.000000
      f-1     :    -0.000000
      f+2     :     0.000000
      f-2     :    -0.000000
      f+3     :     0.000000
      f-3     :    -0.000000
      g0      :    -0.000000  g :    -0.000000
      g+1     :    -0.000000
      g-1     :     0.000000
      g+2     :    -0.000000
      g-2     :    -0.000000
      g+3     :    -0.000000
      g-3     :    -0.000000
      g+4     :     0.000000
      g-4     :    -0.000000
  3 F s       :     0.000000  s :     0.000000
      pz      :     0.000000  p :     0.000000
      px      :    -0.000000
      py      :    -0.000000
      dz2     :    -0.000000  d :    -0.000000
      dxz     :     0.000000
      dyz     :     0.000000
      dx2y2   :    -0.000000
      dxy     :    -0.000000
      f0      :    -0.000000  f :     0.000000
      f+1     :    -0.000000
      f-1     :     0.000000
      f+2     :    -0.000000
      f-2     :     0.000000
      f+3     :     0.000000
      f-3     :     0.000000
      g0      :     0.000000  g :    -0.000000
      g+1     :    -0.000000
      g-1     :     0.000000
      g+2     :    -0.000000
      g-2     :     0.000000
      g+3     :    -0.000000
      g-3     :     0.000000
      g+4     :    -0.000000
      g-4     :    -0.000000
      h0      :     0.000000  h :    -0.000000
      h+1     :    -0.000000
      h-1     :    -0.000000
      h+2     :     0.000000
      h-2     :     0.000000
      h+3     :     0.000000
      h-3     :    -0.000000
      h+4     :    -0.000000
      h-4     :    -0.000000
      h+5     :     0.000000
      h-5     :    -0.000000


                      *****************************
                      * MAYER POPULATION ANALYSIS *
                      *****************************

  NA   - Mulliken gross atomic population
  ZA   - Total nuclear charge
  QA   - Mulliken gross atomic charge
  VA   - Mayer's total valence
  BVA  - Mayer's bonded valence
  FA   - Mayer's free valence

  ATOM       NA         ZA         QA         VA         BVA        FA
  0 N      7.0268     7.0000    -0.0268     2.8241     2.8241     0.0000
  1 H      0.8610     1.0000     0.1390     1.0481     1.0481    -0.0000
  2 H      0.8609     1.0000     0.1391     1.0480     1.0480     0.0000
  3 F      9.2513     9.0000    -0.2513     0.9478     0.9478     0.0000

  Mayer bond orders larger than 0.1
B(  0-N ,  1-H ) :   0.9845 B(  0-N ,  2-H ) :   0.9844 B(  0-N ,  3-F ) :   0.8552 


-------
TIMINGS
-------

Total SCF time: 0 days 1 hours 32 min 42 sec 

Total time                  ....    5562.538 sec
Sum of individual times     ....    5561.650 sec  (100.0%)

Fock matrix formation       ....    5547.749 sec  ( 99.7%)
  XC integration            ....     198.703 sec  (  3.6% of F)
    Basis function eval.    ....      12.559 sec  (  6.3% of XC)
    Density eval.           ....      51.549 sec  ( 25.9% of XC)
    XC-Functional eval.     ....       1.200 sec  (  0.6% of XC)
    XC-Potential eval.      ....     132.410 sec  ( 66.6% of XC)
Diagonalization             ....       2.112 sec  (  0.0%)
Density matrix formation    ....       0.038 sec  (  0.0%)
Population analysis         ....       0.256 sec  (  0.0%)
Initial guess               ....       7.771 sec  (  0.1%)
Orbital Transformation      ....       0.000 sec  (  0.0%)
Orbital Orthonormalization  ....       0.000 sec  (  0.0%)
DIIS solution               ....       0.968 sec  (  0.0%)
Grid generation             ....       2.756 sec  (  0.0%)

-------------------------   --------------------
FINAL SINGLE POINT ENERGY      -155.643514761888
-------------------------   --------------------


                            ***************************************
                            *     ORCA property calculations      *
                            ***************************************

                                    ---------------------
                                    Active property flags
                                    ---------------------
   (+) Dipole Moment
   (+) Polarizability


------------------------------------------------------------------------------
                       ORCA ELECTRIC PROPERTIES CALCULATION
------------------------------------------------------------------------------

Dipole Moment Calculation                       ... on
Quadrupole Moment Calculation                   ... off
Polarizability Calculation                      ... Analytic (CP-SCF)
GBWName                                         ... nh2f_pbe.gbw
Electron density file                           ... nh2f_pbe.scfp.tmp
The origin for moment calculation is the CENTER OF MASS  = (-0.323575,  1.373730 -0.249601)

-------------
DIPOLE MOMENT
-------------
                                X             Y             Z
Electronic contribution:     -0.79105       1.67587      -0.61020
Nuclear contribution   :      1.42742      -1.93608       1.10109
                        -----------------------------------------
Total Dipole Moment    :      0.63637      -0.26021       0.49089
                        -----------------------------------------
Magnitude (a.u.)       :      0.84478
Magnitude (Debye)      :      2.14726



--------------------
Rotational spectrum 
--------------------
 
Rotational constants in cm-1:     8.924455     0.894334     0.861143 
Rotational constants in MHz : 267548.442513 26811.452808 25816.415131 

 Dipole components along the rotational axes: 
x,y,z [a.u.] :     0.551495     0.000000     0.639925 
x,y,z [Debye]:     1.401789     0.000000     1.626559 

 
Transforming and storing MO dipole integrals   ... done

                ... starting polarizability calculation

Opening the Dipole integral file               ... (nh2f_pbe.dmo.tmp) done
Reading Dipole-MO integrals                    ... done
Solving CP-SCF equations                       ... 
------------------------------------------------------------------------------
                           ORCA CP-SCF CALCULATION
------------------------------------------------------------------------------

Input orbitals are from        ... nh2f_pbe.gbw
Input Perturbation             ... nh2f_pbe.cpv.tmp
Wavefunction output            ... nh2f_pbe.cpu.tmp
Perturbation mode              ... Real perturbation (singlet)
Solver                         ... POPLE
Max. number of iterations      ... 200
Convergence tolerance          ... 1.000e-06
Integral handling              ... Direct
Number of perturbations        ... 3
Number of operators            ... 2
Orbital ranges used for CP-SCF:
 Operator 0:  Orbitals   0...  8  to   9...465
 Operator 1:  Orbitals   0...  8  to   9...465
DFT calculation                         ... on
Exchange functional (SCF)               ... PBE
Exchange functional (CP-SCF)            ... PBE
   PBE kappa parameter  XKappa (SCF)    ...  0.804000
   PBE kappa parameter  XKappa (CP-SCF) ...  0.804000
   PBE mue parameter   XMuePBE (SCF)    ...  0.219520
   PBE mue parameter   XMuePBE (CP-SCF) ...  0.219520
Correlation functional (SCF)            ... PBE
Correlation functional (CP-SCF)         ... PBE
   PBE beta parameter CBetaPBE (SCF)    ...  0.066725
   PBE beta parameter CBetaPBE (CP-SCF) ...  0.066725
 LDA part of GGA corr.  LDAOpt (SCF)    ... PW91-LDA
 LDA part of GGA corr.  LDAOpt (CP-SCF) ... PW91-LDA
Variables per vector in CP-SCF ... 8226
Number of vectors sought       ... 3
Recalculating density on grid  ... done
Calculating the xc-kernel      ... done
     CP-SCF ITERATION   0: 
     CP-SCF ITERATION   1:      0.234506501455
     CP-SCF ITERATION   2:      0.030134782146
     CP-SCF ITERATION   3:      0.001430795970
     CP-SCF ITERATION   4:      0.000028369504
     CP-SCF ITERATION   5:      0.000000473309
done
Reading CP-SCF coefficients                    ... done
Doing the polarizability tensor   ... done
Cleaning up                                    ... done

-------------------------
THE POLARIZABILITY TENSOR
-------------------------

The raw cartesian tensor (atomic units):
   15.46217     -1.16611      0.59861  
   -1.16611     17.15091     -0.89956  
    0.59861     -0.89956     15.14800  
diagonalized tensor: 
   14.68621     14.94201     18.13286  

   -0.61084      0.65875      0.43923  
   -0.00003      0.55474     -0.83202  
    0.79175      0.50825      0.33884  

Isotropic polarizability :  15.92036


Timings for individual modules:

Sum of individual times         ...     9498.736 sec (= 158.312 min)
GTO integral calculation        ...        1.399 sec (=   0.023 min)   0.0 %
SCF iterations                  ...     5562.568 sec (=  92.709 min)  58.6 %
Solution of CP-SCF eqns.        ...     3934.769 sec (=  65.579 min)  41.4 %
                             ****ORCA TERMINATED NORMALLY****
TOTAL RUN TIME: 0 days 2 hours 38 minutes 19 seconds 651 msec
