
                                 *****************
                                 * O   R   C   A *
                                 *****************

           --- An Ab Initio, DFT and Semiempirical electronic structure package ---

                  #######################################################
                  #                        -***-                        #
                  #          Department of theory and spectroscopy      #
                  #               Directorship: Frank Neese             #
                  #        Max Planck Institute fuer Kohlenforschung    #
                  #                Kaiser Wilhelm Platz 1               #
                  #                 D-45470 Muelheim/Ruhr               #
                  #                      Germany                        #
                  #                                                     #
                  #                  All rights reserved                #
                  #                        -***-                        #
                  #######################################################


                         Program Version 4.1.2  - RELEASE  -


 With contributions from (in alphabetic order):
   Daniel Aravena         : Magnetic Properties
   Michael Atanasov       : Ab Initio Ligand Field Theory
   Alexander A. Auer      : GIAO ZORA
   Ute Becker             : Parallelization
   Giovanni Bistoni       : ED, Open-shell LED
   Martin Brehm           : Molecular dynamics
   Dmytro Bykov           : SCF Hessian
   Vijay G. Chilkuri      : MRCI spin determinant printing
   Dipayan Datta          : RHF DLPNO-CCSD density
   Achintya Kumar Dutta   : EOM-CC, STEOM-CC
   Dmitry Ganyushin       : Spin-Orbit,Spin-Spin,Magnetic field MRCI
   Miquel Garcia          : C-PCM Hessian
   Yang Guo               : DLPNO-NEVPT2, CIM, IAO-localization
   Andreas Hansen         : Spin unrestricted coupled pair/coupled cluster methods
   Benjamin Helmich-Paris : CASSCF linear response (MC-RPA)
   Lee Huntington         : MR-EOM, pCC
   Robert Izsak           : Overlap fitted RIJCOSX, COSX-SCS-MP3, EOM
   Christian Kollmar      : KDIIS, OOCD, Brueckner-CCSD(T), CCSD density
   Simone Kossmann        : Meta GGA functionals, TD-DFT gradient, OOMP2, MP2 Hessian
   Martin Krupicka        : AUTO-CI
   Lucas Lang             : DCDCAS
   Dagmar Lenk            : GEPOL surface, SMD
   Dimitrios Liakos       : Extrapolation schemes; parallel MDCI
   Dimitrios Manganas     : ROCIS; embedding schemes
   Dimitrios Pantazis     : SARC Basis sets
   Taras Petrenko         : DFT Hessian,TD-DFT gradient, ASA, ECA, R-Raman, ABS, FL, XAS/XES, NRVS
   Peter Pinski           : DLPNO-MP2, DLPNO-MP2 Gradient
   Christoph Reimann      : Effective Core Potentials
   Marius Retegan         : Local ZFS, SOC
   Christoph Riplinger    : Optimizer, TS searches, QM/MM, DLPNO-CCSD(T), (RO)-DLPNO pert. Triples
   Tobias Risthaus        : Range-separated hybrids, TD-DFT gradient, RPA, STAB
   Michael Roemelt        : Restricted open shell CIS
   Masaaki Saitow         : Open-shell DLPNO
   Barbara Sandhoefer     : DKH picture change effects
   Avijit Sen             : IP-ROCIS
   Kantharuban Sivalingam : CASSCF convergence, NEVPT2, FIC-MRCI
   Bernardo de Souza      : ESD, SOC TD-DFT
   Georgi Stoychev        : AutoAux, RI-MP2 NMR
   Willem Van den Heuvel  : Paramagnetic NMR
   Boris Wezisla          : Elementary symmetry handling
   Frank Wennmohs         : Technical directorship


 We gratefully acknowledge several colleagues who have allowed us to
 interface, adapt or use parts of their codes:
   Stefan Grimme, W. Hujo, H. Kruse,             : VdW corrections, initial TS optimization,
                  C. Bannwarth                     DFT functionals, gCP, sTDA/sTD-DF
   Ed Valeev                                     : LibInt (2-el integral package), F12 methods
   Garnet Chan, S. Sharma, J. Yang, R. Olivares  : DMRG
   Ulf Ekstrom                                   : XCFun DFT Library
   Mihaly Kallay                                 : mrcc  (arbitrary order and MRCC methods)
   Andreas Klamt, Michael Diedenhofen            : otool_cosmo (COSMO solvation model)
   Jiri Pittner, Ondrej Demel                    : Mk-CCSD
   Frank Weinhold                                : gennbo (NPA and NBO analysis)
   Christopher J. Cramer and Donald G. Truhlar   : smd solvation model
   Lars Goerigk                                  : TD-DFT with DH, B97 family of functionals
   V. Asgeirsson, H. Jonsson                     : NEB implementation
   FAccTs GmbH                                   : IRC, NEB, NEB-TS, Multilevel


 Your calculation uses the libint2 library for the computation of 2-el integrals
 For citations please refer to: http://libint.valeyev.net

 This ORCA versions uses:
   CBLAS   interface :  Fast vector & matrix operations
   LAPACKE interface :  Fast linear algebra routines
   SCALAPACK package :  Parallel linear algebra routines


----- Orbital basis set information -----
Your calculation utilizes the basis: aug-pc-4
   H, C-F              : F. Jensen, J. Chem. Phys. 115, 9113 (2001).
                         F. Jensen, J. Chem. Phys. 116, 7372 (2002).
                         F. Jensen, J. Chem. Phys. 117, 9234 (2002).
   Si-Cl               : F. Jensen, T. Helgaker, J. Chem. Phys. 121, 3463 (2004).
   He-B, Ne-Mg, Al, Ar : F. Jensen, J. Phys. Chem. A 111, 11198 (2007).
   K, Ca, Ga-Kr        : F. Jensen, J. Chem. Phys. 136, 094110 (2012).
   Sc-Zn               : F. Jensen, J. Chem. Phys. 138, 014107 (2013).

================================================================================
                                        WARNINGS
                       Please study these warnings very carefully!
================================================================================


INFO   : the flag for use of LIBINT has been found!

================================================================================
                                       INPUT FILE
================================================================================
NAME = nh2oh_pbe.inp
|  1> !uks pbe nori aug-pc-4 grid7 nofinalgrid verytightscf
|  2> 
|  3> %maxcore 1500
|  4> 
|  5> %pal nprocs 4 end
|  6> 
|  7> %scf
|  8> 	maxiter 200
|  9> end
| 10> %elprop
| 11> 	dipole true
| 12> 	 polar 1
| 13> 	 maxiter 200
| 14> end
| 15> 
| 16> * xyz 0 1
| 17> N -0.0094 0.7040 0.0000
| 18> O -0.0094 -0.7490 0.0000
| 19> H -0.9525 -0.9386 0.0000
| 20> H 0.5469 1.0012 0.7965
| 21> H 0.5469 1.0012 -0.7965
| 22> *
| 23> 
| 24>                          ****END OF INPUT****
================================================================================

                       ****************************
                       * Single Point Calculation *
                       ****************************

---------------------------------
CARTESIAN COORDINATES (ANGSTROEM)
---------------------------------
  N     -0.009400    0.704000    0.000000
  O     -0.009400   -0.749000    0.000000
  H     -0.952500   -0.938600    0.000000
  H      0.546900    1.001200    0.796500
  H      0.546900    1.001200   -0.796500

----------------------------
CARTESIAN COORDINATES (A.U.)
----------------------------
  NO LB      ZA    FRAG     MASS         X           Y           Z
   0 N     7.0000    0    14.007   -0.017763    1.330367    0.000000
   1 O     8.0000    0    15.999   -0.017763   -1.415405    0.000000
   2 H     1.0000    0     1.008   -1.799964   -1.773697    0.000000
   3 H     1.0000    0     1.008    1.033491    1.891994    1.505167
   4 H     1.0000    0     1.008    1.033491    1.891994   -1.505167

--------------------------------
INTERNAL COORDINATES (ANGSTROEM)
--------------------------------
 N      0   0   0     0.000000000000     0.00000000     0.00000000
 O      1   0   0     1.453000000000     0.00000000     0.00000000
 H      2   1   0     0.961969734451   101.36716866     0.00000000
 H      1   2   3     1.015977253682   107.00925866   124.93162801
 H      1   2   3     1.015977253682   107.00925866   235.06837199

---------------------------
INTERNAL COORDINATES (A.U.)
---------------------------
 N      0   0   0     0.000000000000     0.00000000     0.00000000
 O      1   0   0     2.745772072588     0.00000000     0.00000000
 H      2   1   0     1.817859347234   101.36716866     0.00000000
 H      1   2   3     1.919918767753   107.00925866   124.93162801
 H      1   2   3     1.919918767753   107.00925866   235.06837199

---------------------
BASIS SET INFORMATION
---------------------
There are 3 groups of distinct atoms

 Group   1 Type N   : 27s12p7d4f3g2h contracted to 9s8p7d4f3g2h pattern {1191111111/51111111/1111111/1111/111/11}
 Group   2 Type O   : 27s12p7d4f3g2h contracted to 9s8p7d4f3g2h pattern {1191111111/51111111/1111111/1111/111/11}
 Group   3 Type H   : 12s7p4d3f2g contracted to 8s7p4d3f2g pattern {51111111/1111111/1111/111/11}

Atom   0N    basis set group =>   1
Atom   1O    basis set group =>   2
Atom   2H    basis set group =>   3
Atom   3H    basis set group =>   3
Atom   4H    basis set group =>   3


           ************************************************************
           *        Program running with 4 parallel MPI-processes     *
           *              working on a common directory               *
           ************************************************************
------------------------------------------------------------------------------
                           ORCA GTO INTEGRAL CALCULATION
------------------------------------------------------------------------------

                         BASIS SET STATISTICS AND STARTUP INFO

 # of primitive gaussian shells          ...  194
 # of primitive gaussian functions       ...  626
 # of contracted shells                  ...  138
 # of contracted basis functions         ...  554
 Highest angular momentum                ...    5
 Maximum contraction depth               ...   11
 Integral package used                   ... LIBINT
 Integral threshhold            Thresh   ...  1.000e-12
 Primitive cut-off              TCut     ...  1.000e-14


------------------------------ INTEGRAL EVALUATION ----------------------------


 * One electron integrals 
 Pre-screening matrix                    ... done
 Shell pair data                         ... done (   0.004 sec)



           ************************************************************
           *        Program running with 4 parallel MPI-processes     *
           *              working on a common directory               *
           ************************************************************
-------------------------------------------------------------------------------
                                 ORCA SCF
-------------------------------------------------------------------------------

------------
SCF SETTINGS
------------
Hamiltonian:
 Density Functional     Method          .... DFT(GTOs)
 Exchange Functional    Exchange        .... PBE
   PBE kappa parameter   XKappa         ....  0.804000
   PBE mue parameter    XMuePBE         ....  0.219520
 Correlation Functional Correlation     .... PBE
   PBE beta parameter  CBetaPBE         ....  0.066725
 LDA part of GGA corr.  LDAOpt          .... PW91-LDA
 Gradients option       PostSCFGGA      .... off
   Density functional embedding theory  .... OFF
   NL short-range parameter             ....  6.400000


General Settings:
 Integral files         IntName         .... nh2oh_pbe
 Hartree-Fock type      HFTyp           .... UHF
 Total Charge           Charge          ....    0
 Multiplicity           Mult            ....    1
 Number of Electrons    NEL             ....   18
 Basis Dimension        Dim             ....  554
 Nuclear Repulsion      ENuc            ....     39.0158498075 Eh

Convergence Acceleration:
 DIIS                   CNVDIIS         .... on
   Start iteration      DIISMaxIt       ....    12
   Startup error        DIISStart       ....  0.200000
   # of expansion vecs  DIISMaxEq       ....     5
   Bias factor          DIISBfac        ....   1.050
   Max. coefficient     DIISMaxC        ....  10.000
 Newton-Raphson         CNVNR           .... off
 SOSCF                  CNVSOSCF        .... off
 Level Shifting         CNVShift        .... on
   Level shift para.    LevelShift      ....    0.2500
   Turn off err/grad.   ShiftErr        ....    0.0010
 Zerner damping         CNVZerner       .... off
 Static damping         CNVDamp         .... on
   Fraction old density DampFac         ....    0.7000
   Max. Damping (<1)    DampMax         ....    0.9800
   Min. Damping (>=0)   DampMin         ....    0.0000
   Turn off err/grad.   DampErr         ....    0.1000
 Fernandez-Rico         CNVRico         .... off

SCF Procedure:
 Maximum # iterations   MaxIter         ....   200
 SCF integral mode      SCFMode         .... Direct
   Integral package                     .... LIBINT
 Reset frequency        DirectResetFreq ....    20
 Integral Threshold     Thresh          ....  1.000e-12 Eh
 Primitive CutOff       TCut            ....  1.000e-14 Eh

Convergence Tolerance:
 Convergence Check Mode ConvCheckMode   .... Total+1el-Energy
 Convergence forced     ConvForced      .... 0
 Energy Change          TolE            ....  1.000e-09 Eh
 1-El. energy change                    ....  1.000e-06 Eh
 DIIS Error             TolErr          ....  1.000e-08


Diagonalization of the overlap matrix:
Smallest eigenvalue                        ... 3.435e-07
Time for diagonalization                   ...    0.134 sec
Threshold for overlap eigenvalues          ... 1.000e-08
Number of eigenvalues below threshold      ... 0
Time for construction of square roots      ...    0.165 sec
Total time needed                          ...    0.301 sec

-------------------
DFT GRID GENERATION
-------------------

General Integration Accuracy     IntAcc      ...  5.670
Radial Grid Type                 RadialGrid  ... Gauss-Chebyshev
Angular Grid (max. acc.)         AngularGrid ... Lebedev-770
Angular grid pruning method      GridPruning ... 3 (G Style)
Weight generation scheme         WeightScheme... Becke
Basis function cutoff            BFCut       ...    1.0000e-12
Integration weight cutoff        WCut        ...    1.0000e-14
Grids for H and He will be reduced by one unit

# of grid points (after initial pruning)     ... 103552 (   0.0 sec)
# of grid points (after weights+screening)   ... 100845 (   0.0 sec)
nearest neighbour list constructed           ...    0.0 sec
Grid point re-assignment to atoms done       ...    0.0 sec
Grid point division into batches done        ...    2.1 sec
Reduced shell lists constructed in    3.0 sec

Total number of grid points                  ...   100845
Total number of batches                      ...     1578
Average number of points per batch           ...       63
Average number of grid points per atom       ...    20169
Average number of shells per batch           ...   107.30 (77.76%)
Average number of basis functions per batch  ...   445.33 (80.39%)
Average number of large shells per batch     ...    96.23 (89.68%)
Average number of large basis fcns per batch ...   400.80 (90.00%)
Maximum spatial batch extension              ...  11.31, 11.35, 11.58 au
Average spatial batch extension              ...   0.37,  0.37,  0.39 au

Time for grid setup =    3.161 sec

------------------------------
INITIAL GUESS: MODEL POTENTIAL
------------------------------
Loading Hartree-Fock densities                     ... done
Calculating cut-offs                               ... done
Setting up the integral package                    ... done
Initializing the effective Hamiltonian             ... done
Starting the Coulomb interaction                   ... done (   0.1 sec)
Reading the grid                                   ... done
Mapping shells                                     ... done
Starting the XC term evaluation                    ... done (   4.6 sec)
  promolecular density results
     # of electrons  =     17.998531100
     EX              =    -15.533627956
     EC              =     -0.583064417
     EX+EC           =    -16.116692373
Transforming the Hamiltonian                       ... done (   0.1 sec)
Diagonalizing the Hamiltonian                      ... done (   0.1 sec)
Back transforming the eigenvectors                 ... done (   0.0 sec)
Now organizing SCF variables                       ... done
                      ------------------
                      INITIAL GUESS DONE (   8.2 sec)
                      ------------------
--------------
SCF ITERATIONS
--------------
ITER       Energy         Delta-E        Max-DP      RMS-DP      [F,P]     Damp
               ***  Starting incremental Fock matrix formation  ***
  0   -131.5701760704   0.000000000000 0.01167792  0.00013119  0.2015974 0.7000
  1   -131.6082834608  -0.038107390404 0.01301087  0.00009359  0.0810871 0.7000
                               ***Turning on DIIS***
  2   -131.6200091822  -0.011725721393 0.01465510  0.00011777  0.0222129 0.0000
  3   -131.6406767288  -0.020667546600 0.01525024  0.00007788  0.0530379 0.0000
  4   -131.6452983624  -0.004621633543 0.00640094  0.00002878  0.0083225 0.0000
  5   -131.6455215692  -0.000223206828 0.00113763  0.00000883  0.0042508 0.0000
  6   -131.6455483107  -0.000026741471 0.00114851  0.00000940  0.0009970 0.0000
  7   -131.6455506492  -0.000002338593 0.00052232  0.00000251  0.0003719 0.0000
  8   -131.6455508248  -0.000000175578 0.00004314  0.00000024  0.0000386 0.0000
  9   -131.6455508274  -0.000000002613 0.00001041  0.00000010  0.0000105 0.0000
 10   -131.6455508276  -0.000000000141 0.00004812  0.00000036  0.0000042 0.0000
 11   -131.6455508276  -0.000000000036 0.00010132  0.00000054  0.0000010 0.0000
 12   -131.6455508276   0.000000000017 0.00005886  0.00000053  0.0000003 0.0000
 13   -131.6455508276  -0.000000000005 0.00013285  0.00000088  0.0000001 0.0000
                 **** Energy Check signals convergence ****

               *****************************************************
               *                     SUCCESS                       *
               *           SCF CONVERGED AFTER  14 CYCLES          *
               *****************************************************


----------------
TOTAL SCF ENERGY
----------------

Total Energy       :         -131.64555083 Eh           -3582.25756 eV

Components:
Nuclear Repulsion  :           39.01584981 Eh            1061.67525 eV
Electronic Energy  :         -170.66140064 Eh           -4643.93280 eV
One Electron Energy:         -257.02789145 Eh           -6994.08450 eV
Two Electron Energy:           86.36649081 Eh            2350.15169 eV

Virial components:
Potential Energy   :         -262.82615375 Eh           -7151.86324 eV
Kinetic Energy     :          131.18060292 Eh            3569.60568 eV
Virial Ratio       :            2.00354433


DFT components:
N(Alpha)           :        9.000000015526 electrons
N(Beta)            :        9.000000015526 electrons
N(Total)           :       18.000000031053 electrons
E(X)               :      -15.831467493810 Eh       
E(C)               :       -0.591030755717 Eh       
E(XC)              :      -16.422498249526 Eh       
DFET-embed. en.    :        0.000000000000 Eh       

---------------
SCF CONVERGENCE
---------------

  Last Energy change         ...    1.9043e-12  Tolerance :   1.0000e-09
  Last MAX-Density change    ...    5.2387e-05  Tolerance :   1.0000e-08
  Last RMS-Density change    ...    4.0872e-07  Tolerance :   1.0000e-09
  Last DIIS Error            ...    1.3966e-08  Tolerance :   1.0000e-08

             **** THE GBW FILE WAS UPDATED (nh2oh_pbe.gbw) ****
             **** DENSITY FILE WAS UPDATED (nh2oh_pbe.scfp.tmp) ****
             **** ENERGY FILE WAS UPDATED (nh2oh_pbe.en.tmp) ****
----------------------
UHF SPIN CONTAMINATION
----------------------

Warning: in a DFT calculation there is little theoretical justification to 
         calculate <S**2> as in Hartree-Fock theory. We will do it anyways
         but you should keep in mind that the values have only limited relevance

Expectation value of <S**2>     :     0.000000
Ideal value S*(S+1) for S=0.0   :     0.000000
Deviation                       :     0.000000

----------------
ORBITAL ENERGIES
----------------
                 SPIN UP ORBITALS
  NO   OCC          E(Eh)            E(eV) 
   0   1.0000     -18.780771      -511.0507 
   1   1.0000     -14.022932      -381.5834 
   2   1.0000      -0.968682       -26.3592 
   3   1.0000      -0.739761       -20.1299 
   4   1.0000      -0.458699       -12.4818 
   5   1.0000      -0.447826       -12.1860 
   6   1.0000      -0.391804       -10.6615 
   7   1.0000      -0.250556        -6.8180 
   8   1.0000      -0.222473        -6.0538 
   9   0.0000      -0.024499        -0.6667 
  10   0.0000      -0.016382        -0.4458 
  11   0.0000       0.012551         0.3415 
  12   0.0000       0.017196         0.4679 
  13   0.0000       0.034096         0.9278 
  14   0.0000       0.037897         1.0312 
  15   0.0000       0.045342         1.2338 
  16   0.0000       0.045818         1.2468 
  17   0.0000       0.050639         1.3780 
  18   0.0000       0.054012         1.4697 
  19   0.0000       0.060205         1.6383 
  20   0.0000       0.060440         1.6447 
  21   0.0000       0.064423         1.7530 
  22   0.0000       0.098914         2.6916 
  23   0.0000       0.108760         2.9595 
  24   0.0000       0.110608         3.0098 
  25   0.0000       0.114736         3.1221 
  26   0.0000       0.115538         3.1440 
  27   0.0000       0.118641         3.2284 
  28   0.0000       0.121234         3.2990 
  29   0.0000       0.121317         3.3012 
  30   0.0000       0.132013         3.5923 
  31   0.0000       0.137913         3.7528 
  32   0.0000       0.146893         3.9972 
  33   0.0000       0.152366         4.1461 
  34   0.0000       0.159325         4.3355 
  35   0.0000       0.160988         4.3807 
  36   0.0000       0.162316         4.4168 
  37   0.0000       0.166221         4.5231 
  38   0.0000       0.198263         5.3950 
  39   0.0000       0.204489         5.5644 
  40   0.0000       0.214524         5.8375 
  41   0.0000       0.214735         5.8432 
  42   0.0000       0.223080         6.0703 
  43   0.0000       0.228794         6.2258 
  44   0.0000       0.232944         6.3387 
  45   0.0000       0.238132         6.4799 
  46   0.0000       0.240242         6.5373 
  47   0.0000       0.240571         6.5463 
  48   0.0000       0.242842         6.6081 
  49   0.0000       0.246032         6.6949 
  50   0.0000       0.249947         6.8014 
  51   0.0000       0.255604         6.9554 
  52   0.0000       0.259298         7.0559 
  53   0.0000       0.268636         7.3099 
  54   0.0000       0.270180         7.3520 
  55   0.0000       0.284271         7.7354 
  56   0.0000       0.291119         7.9218 
  57   0.0000       0.298170         8.1136 
  58   0.0000       0.306320         8.3354 
  59   0.0000       0.308858         8.4044 
  60   0.0000       0.311194         8.4680 
  61   0.0000       0.314747         8.5647 
  62   0.0000       0.319926         8.7056 
  63   0.0000       0.324568         8.8319 
  64   0.0000       0.338328         9.2064 
  65   0.0000       0.338751         9.2179 
  66   0.0000       0.359733         9.7888 
  67   0.0000       0.364624         9.9219 
  68   0.0000       0.370539        10.0829 
  69   0.0000       0.374316        10.1857 
  70   0.0000       0.388637        10.5753 
  71   0.0000       0.396817        10.7979 
  72   0.0000       0.409134        11.1331 
  73   0.0000       0.413221        11.2443 
  74   0.0000       0.423489        11.5237 
  75   0.0000       0.423892        11.5347 
  76   0.0000       0.436362        11.8740 
  77   0.0000       0.446764        12.1571 
  78   0.0000       0.448324        12.1995 
  79   0.0000       0.451193        12.2776 
  80   0.0000       0.452250        12.3064 
  81   0.0000       0.459219        12.4960 
  82   0.0000       0.469982        12.7889 
  83   0.0000       0.471605        12.8330 
  84   0.0000       0.472811        12.8658 
  85   0.0000       0.476649        12.9703 
  86   0.0000       0.479961        13.0604 
  87   0.0000       0.485274        13.2050 
  88   0.0000       0.488505        13.2929 
  89   0.0000       0.492212        13.3938 
  90   0.0000       0.502559        13.6753 
  91   0.0000       0.503392        13.6980 
  92   0.0000       0.504960        13.7407 
  93   0.0000       0.507510        13.8101 
  94   0.0000       0.512334        13.9413 
  95   0.0000       0.523215        14.2374 
  96   0.0000       0.526890        14.3374 
  97   0.0000       0.532832        14.4991 
  98   0.0000       0.542823        14.7710 
  99   0.0000       0.547852        14.9078 
 100   0.0000       0.555708        15.1216 
 101   0.0000       0.561520        15.2797 
 102   0.0000       0.573535        15.6067 
 103   0.0000       0.584376        15.9017 
 104   0.0000       0.588094        16.0029 
 105   0.0000       0.603356        16.4182 
 106   0.0000       0.608815        16.5667 
 107   0.0000       0.614159        16.7121 
 108   0.0000       0.619577        16.8595 
 109   0.0000       0.625141        17.0109 
 110   0.0000       0.635933        17.3046 
 111   0.0000       0.640698        17.4343 
 112   0.0000       0.647235        17.6122 
 113   0.0000       0.651859        17.7380 
 114   0.0000       0.664158        18.0727 
 115   0.0000       0.679375        18.4867 
 116   0.0000       0.684642        18.6301 
 117   0.0000       0.691118        18.8063 
 118   0.0000       0.691950        18.8289 
 119   0.0000       0.711155        19.3515 
 120   0.0000       0.717541        19.5253 
 121   0.0000       0.718943        19.5634 
 122   0.0000       0.724905        19.7257 
 123   0.0000       0.729732        19.8570 
 124   0.0000       0.735049        20.0017 
 125   0.0000       0.750997        20.4357 
 126   0.0000       0.757582        20.6149 
 127   0.0000       0.762475        20.7480 
 128   0.0000       0.771249        20.9867 
 129   0.0000       0.776159        21.1204 
 130   0.0000       0.784027        21.3344 
 131   0.0000       0.795818        21.6553 
 132   0.0000       0.801500        21.8099 
 133   0.0000       0.802664        21.8416 
 134   0.0000       0.808350        21.9963 
 135   0.0000       0.817055        22.2332 
 136   0.0000       0.818716        22.2784 
 137   0.0000       0.822530        22.3822 
 138   0.0000       0.825375        22.4596 
 139   0.0000       0.838636        22.8204 
 140   0.0000       0.842084        22.9143 
 141   0.0000       0.843926        22.9644 
 142   0.0000       0.845626        23.0107 
 143   0.0000       0.849499        23.1160 
 144   0.0000       0.870355        23.6836 
 145   0.0000       0.872962        23.7545 
 146   0.0000       0.874278        23.7903 
 147   0.0000       0.887459        24.1490 
 148   0.0000       0.888292        24.1717 
 149   0.0000       0.898671        24.4541 
 150   0.0000       0.905130        24.6298 
 151   0.0000       0.911066        24.7914 
 152   0.0000       0.917484        24.9660 
 153   0.0000       0.919125        25.0107 
 154   0.0000       0.926058        25.1993 
 155   0.0000       0.936710        25.4892 
 156   0.0000       0.939371        25.5616 
 157   0.0000       0.959569        26.1112 
 158   0.0000       0.961674        26.1685 
 159   0.0000       0.972902        26.4740 
 160   0.0000       0.975947        26.5569 
 161   0.0000       0.992308        27.0021 
 162   0.0000       1.004115        27.3234 
 163   0.0000       1.012644        27.5554 
 164   0.0000       1.024911        27.8893 
 165   0.0000       1.025190        27.8968 
 166   0.0000       1.034894        28.1609 
 167   0.0000       1.037295        28.2262 
 168   0.0000       1.058024        28.7903 
 169   0.0000       1.061516        28.8853 
 170   0.0000       1.067760        29.0552 
 171   0.0000       1.073805        29.2197 
 172   0.0000       1.078741        29.3540 
 173   0.0000       1.086639        29.5690 
 174   0.0000       1.087232        29.5851 
 175   0.0000       1.099851        29.9285 
 176   0.0000       1.105964        30.0948 
 177   0.0000       1.112587        30.2750 
 178   0.0000       1.114800        30.3353 
 179   0.0000       1.126277        30.6476 
 180   0.0000       1.129203        30.7272 
 181   0.0000       1.169470        31.8229 
 182   0.0000       1.172625        31.9087 
 183   0.0000       1.192629        32.4531 
 184   0.0000       1.225885        33.3580 
 185   0.0000       1.245919        33.9032 
 186   0.0000       1.256185        34.1825 
 187   0.0000       1.265323        34.4312 
 188   0.0000       1.272254        34.6198 
 189   0.0000       1.288971        35.0747 
 190   0.0000       1.319926        35.9170 
 191   0.0000       1.320417        35.9304 
 192   0.0000       1.333872        36.2965 
 193   0.0000       1.344880        36.5960 
 194   0.0000       1.346350        36.6360 
 195   0.0000       1.367208        37.2036 
 196   0.0000       1.372975        37.3605 
 197   0.0000       1.383985        37.6601 
 198   0.0000       1.396646        38.0047 
 199   0.0000       1.478738        40.2385 
 200   0.0000       1.496474        40.7211 
 201   0.0000       1.509355        41.0716 
 202   0.0000       1.515677        41.2437 
 203   0.0000       1.522429        41.4274 
 204   0.0000       1.536706        41.8159 
 205   0.0000       1.573336        42.8127 
 206   0.0000       1.613844        43.9149 
 207   0.0000       1.628641        44.3176 
 208   0.0000       1.645969        44.7891 
 209   0.0000       1.649103        44.8744 
 210   0.0000       1.654228        45.0138 
 211   0.0000       1.661632        45.2153 
 212   0.0000       1.704678        46.3867 
 213   0.0000       1.716314        46.7033 
 214   0.0000       1.716482        46.7078 
 215   0.0000       1.743013        47.4298 
 216   0.0000       1.754898        47.7532 
 217   0.0000       1.758410        47.8488 
 218   0.0000       1.807908        49.1957 
 219   0.0000       1.812810        49.3291 
 220   0.0000       1.840019        50.0695 
 221   0.0000       1.840079        50.0711 
 222   0.0000       1.885054        51.2949 
 223   0.0000       1.899457        51.6868 
 224   0.0000       1.900721        51.7213 
 225   0.0000       1.947578        52.9963 
 226   0.0000       1.964167        53.4477 
 227   0.0000       1.977492        53.8103 
 228   0.0000       1.984351        53.9969 
 229   0.0000       2.016637        54.8755 
 230   0.0000       2.046867        55.6981 
 231   0.0000       2.086402        56.7739 
 232   0.0000       2.096771        57.0560 
 233   0.0000       2.144059        58.3428 
 234   0.0000       2.161240        58.8103 
 235   0.0000       2.259586        61.4865 
 236   0.0000       2.267516        61.7023 
 237   0.0000       2.281421        62.0806 
 238   0.0000       2.361529        64.2605 
 239   0.0000       2.398393        65.2636 
 240   0.0000       2.471647        67.2569 
 241   0.0000       2.483971        67.5923 
 242   0.0000       2.512601        68.3714 
 243   0.0000       2.548288        69.3424 
 244   0.0000       2.588876        70.4469 
 245   0.0000       2.619272        71.2740 
 246   0.0000       2.627505        71.4980 
 247   0.0000       2.711494        73.7835 
 248   0.0000       2.729081        74.2621 
 249   0.0000       2.737385        74.4880 
 250   0.0000       2.799270        76.1720 
 251   0.0000       2.805580        76.3437 
 252   0.0000       2.906237        79.0827 
 253   0.0000       2.908796        79.1523 
 254   0.0000       2.968889        80.7876 
 255   0.0000       3.032019        82.5054 
 256   0.0000       3.042474        82.7899 
 257   0.0000       3.118033        84.8460 
 258   0.0000       3.199419        87.0606 
 259   0.0000       3.304204        89.9120 
 260   0.0000       3.314505        90.1923 
 261   0.0000       3.319805        90.3365 
 262   0.0000       3.362383        91.4951 
 263   0.0000       3.406706        92.7012 
 264   0.0000       3.418965        93.0348 
 265   0.0000       3.456279        94.0501 
 266   0.0000       3.457548        94.0847 
 267   0.0000       3.472509        94.4918 
 268   0.0000       3.545544        96.4791 
 269   0.0000       3.585656        97.5707 
 270   0.0000       3.596975        97.8787 
 271   0.0000       3.646936        99.2382 
 272   0.0000       3.648736        99.2871 
 273   0.0000       3.682855       100.2156 
 274   0.0000       3.710307       100.9626 
 275   0.0000       3.714199       101.0685 
 276   0.0000       3.716317       101.1261 
 277   0.0000       3.769874       102.5835 
 278   0.0000       3.793095       103.2154 
 279   0.0000       3.828027       104.1659 
 280   0.0000       3.845086       104.6301 
 281   0.0000       3.898992       106.0970 
 282   0.0000       3.943695       107.3134 
 283   0.0000       3.967843       107.9705 
 284   0.0000       3.971723       108.0761 
 285   0.0000       4.030544       109.6767 
 286   0.0000       4.061817       110.5277 
 287   0.0000       4.078284       110.9758 
 288   0.0000       4.104931       111.7009 
 289   0.0000       4.179851       113.7395 
 290   0.0000       4.181136       113.7745 
 291   0.0000       4.249743       115.6414 
 292   0.0000       4.306654       117.1900 
 293   0.0000       4.324591       117.6781 
 294   0.0000       4.373923       119.0205 
 295   0.0000       4.385087       119.3243 
 296   0.0000       4.420190       120.2795 
 297   0.0000       4.444727       120.9472 
 298   0.0000       4.465564       121.5142 
 299   0.0000       4.545580       123.6915 
 300   0.0000       4.607257       125.3698 
 301   0.0000       4.626302       125.8881 
 302   0.0000       4.649403       126.5167 
 303   0.0000       4.723744       128.5396 
 304   0.0000       4.774861       129.9306 
 305   0.0000       4.844020       131.8125 
 306   0.0000       4.882007       132.8462 
 307   0.0000       4.906456       133.5115 
 308   0.0000       4.918653       133.8434 
 309   0.0000       5.006295       136.2282 
 310   0.0000       5.017118       136.5227 
 311   0.0000       5.059864       137.6859 
 312   0.0000       5.083007       138.3156 
 313   0.0000       5.193942       141.3344 
 314   0.0000       5.241950       142.6407 
 315   0.0000       5.390413       146.6806 
 316   0.0000       5.413749       147.3156 
 317   0.0000       5.461547       148.6162 
 318   0.0000       5.480392       149.1291 
 319   0.0000       5.547712       150.9609 
 320   0.0000       5.563327       151.3858 
 321   0.0000       5.630309       153.2085 
 322   0.0000       5.688803       154.8002 
 323   0.0000       5.766811       156.9229 
 324   0.0000       5.868445       159.6885 
 325   0.0000       5.891888       160.3264 
 326   0.0000       5.925537       161.2421 
 327   0.0000       5.958026       162.1261 
 328   0.0000       6.140589       167.0939 
 329   0.0000       6.162637       167.6939 
 330   0.0000       6.205408       168.8577 
 331   0.0000       6.218901       169.2249 
 332   0.0000       6.309953       171.7026 
 333   0.0000       6.356793       172.9771 
 334   0.0000       6.358738       173.0301 
 335   0.0000       6.408333       174.3796 
 336   0.0000       6.410498       174.4385 
 337   0.0000       6.553823       178.3386 
 338   0.0000       6.613222       179.9549 
 339   0.0000       6.633701       180.5122 
 340   0.0000       6.695293       182.1882 
 341   0.0000       6.819391       185.5651 
 342   0.0000       6.822393       185.6468 
 343   0.0000       6.956895       189.3067 
 344   0.0000       7.056432       192.0153 
 345   0.0000       7.067679       192.3213 
 346   0.0000       7.347311       199.9305 
 347   0.0000       7.393246       201.1805 
 348   0.0000       7.417038       201.8279 
 349   0.0000       7.460633       203.0141 
 350   0.0000       7.496257       203.9835 
 351   0.0000       7.599736       206.7993 
 352   0.0000       7.649600       208.1562 
 353   0.0000       7.709364       209.7825 
 354   0.0000       7.858113       213.8301 
 355   0.0000       7.895867       214.8575 
 356   0.0000       7.954802       216.4612 
 357   0.0000       8.042647       218.8515 
 358   0.0000       8.191955       222.9144 
 359   0.0000       8.192865       222.9392 
 360   0.0000       8.597713       233.9557 
 361   0.0000       8.606424       234.1927 
 362   0.0000       8.658078       235.5983 
 363   0.0000       8.673794       236.0259 
 364   0.0000       8.747970       238.0444 
 365   0.0000       8.872386       241.4299 
 366   0.0000       8.896923       242.0976 
 367   0.0000       9.081702       247.1257 
 368   0.0000       9.103591       247.7213 
 369   0.0000       9.158189       249.2070 
 370   0.0000       9.170434       249.5402 
 371   0.0000       9.224423       251.0093 
 372   0.0000       9.228270       251.1140 
 373   0.0000       9.304482       253.1878 
 374   0.0000       9.404720       255.9154 
 375   0.0000       9.484081       258.0750 
 376   0.0000       9.551663       259.9140 
 377   0.0000       9.712960       264.3031 
 378   0.0000       9.802773       266.7470 
 379   0.0000       9.812001       266.9981 
 380   0.0000       9.850580       268.0479 
 381   0.0000       9.923148       270.0226 
 382   0.0000      10.017508       272.5903 
 383   0.0000      10.048621       273.4369 
 384   0.0000      10.076008       274.1821 
 385   0.0000      10.154922       276.3295 
 386   0.0000      10.191701       277.3303 
 387   0.0000      10.277963       279.6776 
 388   0.0000      10.491009       285.4749 
 389   0.0000      10.604546       288.5644 
 390   0.0000      10.798523       293.8428 
 391   0.0000      11.149001       303.3797 
 392   0.0000      11.221724       305.3586 
 393   0.0000      11.294372       307.3355 
 394   0.0000      11.315818       307.9191 
 395   0.0000      11.379290       309.6462 
 396   0.0000      11.443796       311.4015 
 397   0.0000      11.460702       311.8616 
 398   0.0000      11.482654       312.4589 
 399   0.0000      11.504854       313.0630 
 400   0.0000      11.652531       317.0815 
 401   0.0000      11.664519       317.4077 
 402   0.0000      11.730285       319.1973 
 403   0.0000      11.785681       320.7047 
 404   0.0000      11.796201       320.9909 
 405   0.0000      11.897075       323.7359 
 406   0.0000      11.926285       324.5307 
 407   0.0000      11.964421       325.5685 
 408   0.0000      12.069646       328.4318 
 409   0.0000      12.104758       329.3872 
 410   0.0000      12.114021       329.6393 
 411   0.0000      12.138122       330.2951 
 412   0.0000      12.203963       332.0867 
 413   0.0000      12.403433       337.5146 
 414   0.0000      12.437448       338.4402 
 415   0.0000      12.518408       340.6432 
 416   0.0000      12.525655       340.8404 
 417   0.0000      12.562902       341.8539 
 418   0.0000      12.583866       342.4244 
 419   0.0000      12.650460       344.2365 
 420   0.0000      12.692962       345.3930 
 421   0.0000      12.705465       345.7333 
 422   0.0000      12.715309       346.0012 
 423   0.0000      12.794021       348.1430 
 424   0.0000      12.864063       350.0489 
 425   0.0000      12.894071       350.8655 
 426   0.0000      12.922454       351.6379 
 427   0.0000      12.935277       351.9868 
 428   0.0000      12.966532       352.8373 
 429   0.0000      12.987520       353.4084 
 430   0.0000      13.062588       355.4511 
 431   0.0000      13.154418       357.9499 
 432   0.0000      13.316179       362.3516 
 433   0.0000      13.349229       363.2510 
 434   0.0000      13.628914       370.8616 
 435   0.0000      13.799767       375.5108 
 436   0.0000      13.807018       375.7081 
 437   0.0000      13.940567       379.3421 
 438   0.0000      13.990686       380.7059 
 439   0.0000      14.044338       382.1659 
 440   0.0000      14.145216       384.9109 
 441   0.0000      14.200433       386.4134 
 442   0.0000      14.251682       387.8080 
 443   0.0000      14.489137       394.2695 
 444   0.0000      14.499293       394.5458 
 445   0.0000      14.792329       402.5197 
 446   0.0000      14.835865       403.7044 
 447   0.0000      15.270668       415.5360 
 448   0.0000      15.283363       415.8814 
 449   0.0000      15.316476       416.7825 
 450   0.0000      15.500616       421.7932 
 451   0.0000      15.512539       422.1177 
 452   0.0000      15.619557       425.0298 
 453   0.0000      15.778367       429.3512 
 454   0.0000      15.856967       431.4900 
 455   0.0000      15.955668       434.1758 
 456   0.0000      15.973481       434.6605 
 457   0.0000      15.986780       435.0224 
 458   0.0000      16.403036       446.3493 
 459   0.0000      16.459208       447.8778 
 460   0.0000      16.520434       449.5439 
 461   0.0000      16.624075       452.3641 
 462   0.0000      16.744178       455.6322 
 463   0.0000      16.770123       456.3382 
 464   0.0000      16.773044       456.4177 
 465   0.0000      16.788218       456.8306 
 466   0.0000      16.798542       457.1116 
 467   0.0000      16.936225       460.8581 
 468   0.0000      17.118643       465.8220 
 469   0.0000      17.125722       466.0146 
 470   0.0000      17.182098       467.5487 
 471   0.0000      17.238322       469.0786 
 472   0.0000      17.272468       470.0077 
 473   0.0000      17.320458       471.3136 
 474   0.0000      17.365284       472.5334 
 475   0.0000      17.390989       473.2329 
 476   0.0000      17.424535       474.1457 
 477   0.0000      17.510254       476.4782 
 478   0.0000      17.586634       478.5566 
 479   0.0000      17.597740       478.8588 
 480   0.0000      17.721168       482.2175 
 481   0.0000      17.807641       484.5705 
 482   0.0000      17.824982       485.0424 
 483   0.0000      17.906848       487.2701 
 484   0.0000      17.937606       488.1071 
 485   0.0000      18.027115       490.5428 
 486   0.0000      18.041611       490.9372 
 487   0.0000      18.494473       503.2602 
 488   0.0000      18.657030       507.6836 
 489   0.0000      18.843494       512.7576 
 490   0.0000      18.875593       513.6310 
 491   0.0000      18.956444       515.8311 
 492   0.0000      19.119280       520.2621 
 493   0.0000      19.283745       524.7374 
 494   0.0000      19.560568       532.2701 
 495   0.0000      19.575690       532.6816 
 496   0.0000      19.691595       535.8355 
 497   0.0000      19.837569       539.8077 
 498   0.0000      19.908657       541.7421 
 499   0.0000      20.763070       564.9919 
 500   0.0000      20.906333       568.8902 
 501   0.0000      20.915351       569.1356 
 502   0.0000      20.989130       571.1433 
 503   0.0000      20.990543       571.1817 
 504   0.0000      21.056939       572.9884 
 505   0.0000      21.267011       578.7048 
 506   0.0000      21.433017       583.2220 
 507   0.0000      22.101979       601.4254 
 508   0.0000      23.448401       638.0634 
 509   0.0000      23.616592       642.6401 
 510   0.0000      23.700344       644.9192 
 511   0.0000      23.716036       645.3461 
 512   0.0000      23.756500       646.4472 
 513   0.0000      23.816578       648.0820 
 514   0.0000      23.868515       649.4953 
 515   0.0000      23.925564       651.0477 
 516   0.0000      24.071026       655.0059 
 517   0.0000      24.337298       662.2516 
 518   0.0000      25.108214       683.2292 
 519   0.0000      25.644203       697.8142 
 520   0.0000      26.014835       707.8996 
 521   0.0000      26.938736       733.0403 
 522   0.0000      27.198938       740.1207 
 523   0.0000      27.419896       746.1333 
 524   0.0000      28.516769       775.9807 
 525   0.0000      28.697371       780.8952 
 526   0.0000      30.878716       840.2526 
 527   0.0000      32.272863       878.1892 
 528   0.0000      33.973553       924.4674 
 529   0.0000      34.360050       934.9845 
 530   0.0000      41.479544      1128.7158 
 531   0.0000      41.540089      1130.3633 
 532   0.0000      41.649828      1133.3494 
 533   0.0000      48.169209      1310.7508 
 534   0.0000      48.224585      1312.2577 
 535   0.0000      48.383922      1316.5934 
 536   0.0000      48.960579      1332.2851 
 537   0.0000      49.375965      1343.5883 
 538   0.0000      66.828386      1818.4928 
 539   0.0000      67.009361      1823.4174 
 540   0.0000      67.065185      1824.9365 
 541   0.0000      67.691420      1841.9772 
 542   0.0000      68.939152      1875.9297 
 543   0.0000      91.074922      2478.2746 
 544   0.0000      91.104680      2479.0844 
 545   0.0000      91.138918      2480.0160 
 546   0.0000      91.145449      2480.1938 
 547   0.0000      91.238729      2482.7320 
 548   0.0000      91.336137      2485.3827 
 549   0.0000      92.879734      2527.3860 
 550   0.0000      93.007480      2530.8622 
 551   0.0000      93.542719      2545.4268 
 552   0.0000     105.894083      2881.5245 
 553   0.0000     144.098912      3921.1307 

                 SPIN DOWN ORBITALS
  NO   OCC          E(Eh)            E(eV) 
   0   1.0000     -18.780771      -511.0507 
   1   1.0000     -14.022932      -381.5834 
   2   1.0000      -0.968682       -26.3592 
   3   1.0000      -0.739761       -20.1299 
   4   1.0000      -0.458699       -12.4818 
   5   1.0000      -0.447826       -12.1860 
   6   1.0000      -0.391804       -10.6615 
   7   1.0000      -0.250556        -6.8180 
   8   1.0000      -0.222473        -6.0538 
   9   0.0000      -0.024499        -0.6667 
  10   0.0000      -0.016382        -0.4458 
  11   0.0000       0.012551         0.3415 
  12   0.0000       0.017196         0.4679 
  13   0.0000       0.034096         0.9278 
  14   0.0000       0.037897         1.0312 
  15   0.0000       0.045342         1.2338 
  16   0.0000       0.045818         1.2468 
  17   0.0000       0.050639         1.3780 
  18   0.0000       0.054012         1.4697 
  19   0.0000       0.060205         1.6383 
  20   0.0000       0.060440         1.6447 
  21   0.0000       0.064423         1.7530 
  22   0.0000       0.098914         2.6916 
  23   0.0000       0.108760         2.9595 
  24   0.0000       0.110608         3.0098 
  25   0.0000       0.114736         3.1221 
  26   0.0000       0.115538         3.1440 
  27   0.0000       0.118641         3.2284 
  28   0.0000       0.121234         3.2990 
  29   0.0000       0.121317         3.3012 
  30   0.0000       0.132013         3.5923 
  31   0.0000       0.137913         3.7528 
  32   0.0000       0.146893         3.9972 
  33   0.0000       0.152366         4.1461 
  34   0.0000       0.159325         4.3355 
  35   0.0000       0.160988         4.3807 
  36   0.0000       0.162316         4.4168 
  37   0.0000       0.166221         4.5231 
  38   0.0000       0.198263         5.3950 
  39   0.0000       0.204489         5.5644 
  40   0.0000       0.214524         5.8375 
  41   0.0000       0.214735         5.8432 
  42   0.0000       0.223080         6.0703 
  43   0.0000       0.228794         6.2258 
  44   0.0000       0.232944         6.3387 
  45   0.0000       0.238132         6.4799 
  46   0.0000       0.240242         6.5373 
  47   0.0000       0.240571         6.5463 
  48   0.0000       0.242842         6.6081 
  49   0.0000       0.246032         6.6949 
  50   0.0000       0.249947         6.8014 
  51   0.0000       0.255604         6.9554 
  52   0.0000       0.259298         7.0559 
  53   0.0000       0.268636         7.3099 
  54   0.0000       0.270180         7.3520 
  55   0.0000       0.284271         7.7354 
  56   0.0000       0.291119         7.9218 
  57   0.0000       0.298170         8.1136 
  58   0.0000       0.306320         8.3354 
  59   0.0000       0.308858         8.4044 
  60   0.0000       0.311194         8.4680 
  61   0.0000       0.314747         8.5647 
  62   0.0000       0.319926         8.7056 
  63   0.0000       0.324568         8.8319 
  64   0.0000       0.338328         9.2064 
  65   0.0000       0.338751         9.2179 
  66   0.0000       0.359733         9.7888 
  67   0.0000       0.364624         9.9219 
  68   0.0000       0.370539        10.0829 
  69   0.0000       0.374316        10.1857 
  70   0.0000       0.388637        10.5753 
  71   0.0000       0.396817        10.7979 
  72   0.0000       0.409134        11.1331 
  73   0.0000       0.413221        11.2443 
  74   0.0000       0.423489        11.5237 
  75   0.0000       0.423892        11.5347 
  76   0.0000       0.436362        11.8740 
  77   0.0000       0.446764        12.1571 
  78   0.0000       0.448324        12.1995 
  79   0.0000       0.451193        12.2776 
  80   0.0000       0.452250        12.3064 
  81   0.0000       0.459219        12.4960 
  82   0.0000       0.469982        12.7889 
  83   0.0000       0.471605        12.8330 
  84   0.0000       0.472811        12.8658 
  85   0.0000       0.476649        12.9703 
  86   0.0000       0.479961        13.0604 
  87   0.0000       0.485274        13.2050 
  88   0.0000       0.488505        13.2929 
  89   0.0000       0.492212        13.3938 
  90   0.0000       0.502559        13.6753 
  91   0.0000       0.503392        13.6980 
  92   0.0000       0.504960        13.7407 
  93   0.0000       0.507510        13.8101 
  94   0.0000       0.512334        13.9413 
  95   0.0000       0.523215        14.2374 
  96   0.0000       0.526890        14.3374 
  97   0.0000       0.532832        14.4991 
  98   0.0000       0.542823        14.7710 
  99   0.0000       0.547852        14.9078 
 100   0.0000       0.555708        15.1216 
 101   0.0000       0.561520        15.2797 
 102   0.0000       0.573535        15.6067 
 103   0.0000       0.584376        15.9017 
 104   0.0000       0.588094        16.0029 
 105   0.0000       0.603356        16.4182 
 106   0.0000       0.608815        16.5667 
 107   0.0000       0.614159        16.7121 
 108   0.0000       0.619577        16.8595 
 109   0.0000       0.625141        17.0109 
 110   0.0000       0.635933        17.3046 
 111   0.0000       0.640698        17.4343 
 112   0.0000       0.647235        17.6122 
 113   0.0000       0.651859        17.7380 
 114   0.0000       0.664158        18.0727 
 115   0.0000       0.679375        18.4867 
 116   0.0000       0.684642        18.6301 
 117   0.0000       0.691118        18.8063 
 118   0.0000       0.691950        18.8289 
 119   0.0000       0.711155        19.3515 
 120   0.0000       0.717541        19.5253 
 121   0.0000       0.718943        19.5634 
 122   0.0000       0.724905        19.7257 
 123   0.0000       0.729732        19.8570 
 124   0.0000       0.735049        20.0017 
 125   0.0000       0.750997        20.4357 
 126   0.0000       0.757582        20.6149 
 127   0.0000       0.762475        20.7480 
 128   0.0000       0.771249        20.9867 
 129   0.0000       0.776159        21.1204 
 130   0.0000       0.784027        21.3344 
 131   0.0000       0.795818        21.6553 
 132   0.0000       0.801500        21.8099 
 133   0.0000       0.802664        21.8416 
 134   0.0000       0.808350        21.9963 
 135   0.0000       0.817055        22.2332 
 136   0.0000       0.818716        22.2784 
 137   0.0000       0.822530        22.3822 
 138   0.0000       0.825375        22.4596 
 139   0.0000       0.838636        22.8204 
 140   0.0000       0.842084        22.9143 
 141   0.0000       0.843926        22.9644 
 142   0.0000       0.845626        23.0107 
 143   0.0000       0.849499        23.1160 
 144   0.0000       0.870355        23.6836 
 145   0.0000       0.872962        23.7545 
 146   0.0000       0.874278        23.7903 
 147   0.0000       0.887459        24.1490 
 148   0.0000       0.888292        24.1717 
 149   0.0000       0.898671        24.4541 
 150   0.0000       0.905130        24.6298 
 151   0.0000       0.911066        24.7914 
 152   0.0000       0.917484        24.9660 
 153   0.0000       0.919125        25.0107 
 154   0.0000       0.926058        25.1993 
 155   0.0000       0.936710        25.4892 
 156   0.0000       0.939371        25.5616 
 157   0.0000       0.959569        26.1112 
 158   0.0000       0.961674        26.1685 
 159   0.0000       0.972902        26.4740 
 160   0.0000       0.975947        26.5569 
 161   0.0000       0.992308        27.0021 
 162   0.0000       1.004115        27.3234 
 163   0.0000       1.012644        27.5554 
 164   0.0000       1.024911        27.8893 
 165   0.0000       1.025190        27.8968 
 166   0.0000       1.034894        28.1609 
 167   0.0000       1.037295        28.2262 
 168   0.0000       1.058024        28.7903 
 169   0.0000       1.061516        28.8853 
 170   0.0000       1.067760        29.0552 
 171   0.0000       1.073805        29.2197 
 172   0.0000       1.078741        29.3540 
 173   0.0000       1.086639        29.5690 
 174   0.0000       1.087232        29.5851 
 175   0.0000       1.099851        29.9285 
 176   0.0000       1.105964        30.0948 
 177   0.0000       1.112587        30.2750 
 178   0.0000       1.114800        30.3353 
 179   0.0000       1.126277        30.6476 
 180   0.0000       1.129203        30.7272 
 181   0.0000       1.169470        31.8229 
 182   0.0000       1.172625        31.9087 
 183   0.0000       1.192629        32.4531 
 184   0.0000       1.225885        33.3580 
 185   0.0000       1.245919        33.9032 
 186   0.0000       1.256185        34.1825 
 187   0.0000       1.265323        34.4312 
 188   0.0000       1.272254        34.6198 
 189   0.0000       1.288971        35.0747 
 190   0.0000       1.319926        35.9170 
 191   0.0000       1.320417        35.9304 
 192   0.0000       1.333872        36.2965 
 193   0.0000       1.344880        36.5960 
 194   0.0000       1.346350        36.6360 
 195   0.0000       1.367208        37.2036 
 196   0.0000       1.372975        37.3605 
 197   0.0000       1.383985        37.6601 
 198   0.0000       1.396646        38.0047 
 199   0.0000       1.478738        40.2385 
 200   0.0000       1.496474        40.7211 
 201   0.0000       1.509355        41.0716 
 202   0.0000       1.515677        41.2437 
 203   0.0000       1.522429        41.4274 
 204   0.0000       1.536706        41.8159 
 205   0.0000       1.573336        42.8127 
 206   0.0000       1.613844        43.9149 
 207   0.0000       1.628641        44.3176 
 208   0.0000       1.645969        44.7891 
 209   0.0000       1.649103        44.8744 
 210   0.0000       1.654228        45.0138 
 211   0.0000       1.661632        45.2153 
 212   0.0000       1.704678        46.3867 
 213   0.0000       1.716314        46.7033 
 214   0.0000       1.716482        46.7078 
 215   0.0000       1.743013        47.4298 
 216   0.0000       1.754898        47.7532 
 217   0.0000       1.758410        47.8488 
 218   0.0000       1.807908        49.1957 
 219   0.0000       1.812810        49.3291 
 220   0.0000       1.840019        50.0695 
 221   0.0000       1.840079        50.0711 
 222   0.0000       1.885054        51.2949 
 223   0.0000       1.899457        51.6868 
 224   0.0000       1.900721        51.7213 
 225   0.0000       1.947578        52.9963 
 226   0.0000       1.964167        53.4477 
 227   0.0000       1.977492        53.8103 
 228   0.0000       1.984351        53.9969 
 229   0.0000       2.016637        54.8755 
 230   0.0000       2.046867        55.6981 
 231   0.0000       2.086402        56.7739 
 232   0.0000       2.096771        57.0560 
 233   0.0000       2.144059        58.3428 
 234   0.0000       2.161240        58.8103 
 235   0.0000       2.259586        61.4865 
 236   0.0000       2.267516        61.7023 
 237   0.0000       2.281421        62.0806 
 238   0.0000       2.361529        64.2605 
 239   0.0000       2.398393        65.2636 
 240   0.0000       2.471647        67.2569 
 241   0.0000       2.483971        67.5923 
 242   0.0000       2.512601        68.3714 
 243   0.0000       2.548288        69.3424 
 244   0.0000       2.588876        70.4469 
 245   0.0000       2.619272        71.2740 
 246   0.0000       2.627505        71.4980 
 247   0.0000       2.711494        73.7835 
 248   0.0000       2.729081        74.2621 
 249   0.0000       2.737385        74.4880 
 250   0.0000       2.799270        76.1720 
 251   0.0000       2.805580        76.3437 
 252   0.0000       2.906237        79.0827 
 253   0.0000       2.908796        79.1523 
 254   0.0000       2.968889        80.7876 
 255   0.0000       3.032019        82.5054 
 256   0.0000       3.042474        82.7899 
 257   0.0000       3.118033        84.8460 
 258   0.0000       3.199419        87.0606 
 259   0.0000       3.304204        89.9120 
 260   0.0000       3.314505        90.1923 
 261   0.0000       3.319805        90.3365 
 262   0.0000       3.362383        91.4951 
 263   0.0000       3.406706        92.7012 
 264   0.0000       3.418965        93.0348 
 265   0.0000       3.456279        94.0501 
 266   0.0000       3.457548        94.0847 
 267   0.0000       3.472509        94.4918 
 268   0.0000       3.545544        96.4791 
 269   0.0000       3.585656        97.5707 
 270   0.0000       3.596975        97.8787 
 271   0.0000       3.646936        99.2382 
 272   0.0000       3.648736        99.2871 
 273   0.0000       3.682855       100.2156 
 274   0.0000       3.710307       100.9626 
 275   0.0000       3.714199       101.0685 
 276   0.0000       3.716317       101.1261 
 277   0.0000       3.769874       102.5835 
 278   0.0000       3.793095       103.2154 
 279   0.0000       3.828027       104.1659 
 280   0.0000       3.845086       104.6301 
 281   0.0000       3.898992       106.0970 
 282   0.0000       3.943695       107.3134 
 283   0.0000       3.967843       107.9705 
 284   0.0000       3.971723       108.0761 
 285   0.0000       4.030544       109.6767 
 286   0.0000       4.061817       110.5277 
 287   0.0000       4.078284       110.9758 
 288   0.0000       4.104931       111.7009 
 289   0.0000       4.179851       113.7395 
 290   0.0000       4.181136       113.7745 
 291   0.0000       4.249743       115.6414 
 292   0.0000       4.306654       117.1900 
 293   0.0000       4.324591       117.6781 
 294   0.0000       4.373923       119.0205 
 295   0.0000       4.385087       119.3243 
 296   0.0000       4.420190       120.2795 
 297   0.0000       4.444727       120.9472 
 298   0.0000       4.465564       121.5142 
 299   0.0000       4.545580       123.6915 
 300   0.0000       4.607257       125.3698 
 301   0.0000       4.626302       125.8881 
 302   0.0000       4.649403       126.5167 
 303   0.0000       4.723744       128.5396 
 304   0.0000       4.774861       129.9306 
 305   0.0000       4.844020       131.8125 
 306   0.0000       4.882007       132.8462 
 307   0.0000       4.906456       133.5115 
 308   0.0000       4.918653       133.8434 
 309   0.0000       5.006295       136.2282 
 310   0.0000       5.017118       136.5227 
 311   0.0000       5.059864       137.6859 
 312   0.0000       5.083007       138.3156 
 313   0.0000       5.193942       141.3344 
 314   0.0000       5.241950       142.6407 
 315   0.0000       5.390413       146.6806 
 316   0.0000       5.413749       147.3156 
 317   0.0000       5.461547       148.6162 
 318   0.0000       5.480392       149.1291 
 319   0.0000       5.547712       150.9609 
 320   0.0000       5.563327       151.3858 
 321   0.0000       5.630309       153.2085 
 322   0.0000       5.688803       154.8002 
 323   0.0000       5.766811       156.9229 
 324   0.0000       5.868445       159.6885 
 325   0.0000       5.891888       160.3264 
 326   0.0000       5.925537       161.2421 
 327   0.0000       5.958026       162.1261 
 328   0.0000       6.140589       167.0939 
 329   0.0000       6.162637       167.6939 
 330   0.0000       6.205408       168.8577 
 331   0.0000       6.218901       169.2249 
 332   0.0000       6.309953       171.7026 
 333   0.0000       6.356793       172.9771 
 334   0.0000       6.358738       173.0301 
 335   0.0000       6.408333       174.3796 
 336   0.0000       6.410498       174.4385 
 337   0.0000       6.553823       178.3386 
 338   0.0000       6.613222       179.9549 
 339   0.0000       6.633701       180.5122 
 340   0.0000       6.695293       182.1882 
 341   0.0000       6.819391       185.5651 
 342   0.0000       6.822393       185.6468 
 343   0.0000       6.956895       189.3067 
 344   0.0000       7.056432       192.0153 
 345   0.0000       7.067679       192.3213 
 346   0.0000       7.347311       199.9305 
 347   0.0000       7.393246       201.1805 
 348   0.0000       7.417038       201.8279 
 349   0.0000       7.460633       203.0141 
 350   0.0000       7.496257       203.9835 
 351   0.0000       7.599736       206.7993 
 352   0.0000       7.649600       208.1562 
 353   0.0000       7.709364       209.7825 
 354   0.0000       7.858113       213.8301 
 355   0.0000       7.895867       214.8575 
 356   0.0000       7.954802       216.4612 
 357   0.0000       8.042647       218.8515 
 358   0.0000       8.191955       222.9144 
 359   0.0000       8.192865       222.9392 
 360   0.0000       8.597713       233.9557 
 361   0.0000       8.606424       234.1927 
 362   0.0000       8.658078       235.5983 
 363   0.0000       8.673794       236.0259 
 364   0.0000       8.747970       238.0444 
 365   0.0000       8.872386       241.4299 
 366   0.0000       8.896923       242.0976 
 367   0.0000       9.081702       247.1257 
 368   0.0000       9.103591       247.7213 
 369   0.0000       9.158189       249.2070 
 370   0.0000       9.170434       249.5402 
 371   0.0000       9.224423       251.0093 
 372   0.0000       9.228270       251.1140 
 373   0.0000       9.304482       253.1878 
 374   0.0000       9.404720       255.9154 
 375   0.0000       9.484081       258.0750 
 376   0.0000       9.551663       259.9140 
 377   0.0000       9.712960       264.3031 
 378   0.0000       9.802773       266.7470 
 379   0.0000       9.812001       266.9981 
 380   0.0000       9.850580       268.0479 
 381   0.0000       9.923148       270.0226 
 382   0.0000      10.017508       272.5903 
 383   0.0000      10.048621       273.4369 
 384   0.0000      10.076008       274.1821 
 385   0.0000      10.154922       276.3295 
 386   0.0000      10.191701       277.3303 
 387   0.0000      10.277963       279.6776 
 388   0.0000      10.491009       285.4749 
 389   0.0000      10.604546       288.5644 
 390   0.0000      10.798523       293.8428 
 391   0.0000      11.149001       303.3797 
 392   0.0000      11.221724       305.3586 
 393   0.0000      11.294372       307.3355 
 394   0.0000      11.315818       307.9191 
 395   0.0000      11.379290       309.6462 
 396   0.0000      11.443796       311.4015 
 397   0.0000      11.460702       311.8616 
 398   0.0000      11.482654       312.4589 
 399   0.0000      11.504854       313.0630 
 400   0.0000      11.652531       317.0815 
 401   0.0000      11.664519       317.4077 
 402   0.0000      11.730285       319.1973 
 403   0.0000      11.785681       320.7047 
 404   0.0000      11.796201       320.9909 
 405   0.0000      11.897075       323.7359 
 406   0.0000      11.926285       324.5307 
 407   0.0000      11.964421       325.5685 
 408   0.0000      12.069646       328.4318 
 409   0.0000      12.104758       329.3872 
 410   0.0000      12.114021       329.6393 
 411   0.0000      12.138122       330.2951 
 412   0.0000      12.203963       332.0867 
 413   0.0000      12.403433       337.5146 
 414   0.0000      12.437448       338.4402 
 415   0.0000      12.518408       340.6432 
 416   0.0000      12.525655       340.8404 
 417   0.0000      12.562902       341.8539 
 418   0.0000      12.583866       342.4244 
 419   0.0000      12.650460       344.2365 
 420   0.0000      12.692962       345.3930 
 421   0.0000      12.705465       345.7333 
 422   0.0000      12.715309       346.0012 
 423   0.0000      12.794021       348.1430 
 424   0.0000      12.864063       350.0489 
 425   0.0000      12.894071       350.8655 
 426   0.0000      12.922454       351.6379 
 427   0.0000      12.935277       351.9868 
 428   0.0000      12.966532       352.8373 
 429   0.0000      12.987520       353.4084 
 430   0.0000      13.062588       355.4511 
 431   0.0000      13.154418       357.9499 
 432   0.0000      13.316179       362.3516 
 433   0.0000      13.349229       363.2510 
 434   0.0000      13.628914       370.8616 
 435   0.0000      13.799767       375.5108 
 436   0.0000      13.807018       375.7081 
 437   0.0000      13.940567       379.3421 
 438   0.0000      13.990686       380.7059 
 439   0.0000      14.044338       382.1659 
 440   0.0000      14.145216       384.9109 
 441   0.0000      14.200433       386.4134 
 442   0.0000      14.251682       387.8080 
 443   0.0000      14.489137       394.2695 
 444   0.0000      14.499293       394.5458 
 445   0.0000      14.792329       402.5197 
 446   0.0000      14.835865       403.7044 
 447   0.0000      15.270668       415.5360 
 448   0.0000      15.283363       415.8814 
 449   0.0000      15.316476       416.7825 
 450   0.0000      15.500616       421.7932 
 451   0.0000      15.512539       422.1177 
 452   0.0000      15.619557       425.0298 
 453   0.0000      15.778367       429.3512 
 454   0.0000      15.856967       431.4900 
 455   0.0000      15.955668       434.1758 
 456   0.0000      15.973481       434.6605 
 457   0.0000      15.986780       435.0224 
 458   0.0000      16.403036       446.3493 
 459   0.0000      16.459208       447.8778 
 460   0.0000      16.520434       449.5439 
 461   0.0000      16.624075       452.3641 
 462   0.0000      16.744178       455.6322 
 463   0.0000      16.770123       456.3382 
 464   0.0000      16.773044       456.4177 
 465   0.0000      16.788218       456.8306 
 466   0.0000      16.798542       457.1116 
 467   0.0000      16.936225       460.8581 
 468   0.0000      17.118643       465.8220 
 469   0.0000      17.125722       466.0146 
 470   0.0000      17.182098       467.5487 
 471   0.0000      17.238322       469.0786 
 472   0.0000      17.272468       470.0077 
 473   0.0000      17.320458       471.3136 
 474   0.0000      17.365284       472.5334 
 475   0.0000      17.390989       473.2329 
 476   0.0000      17.424535       474.1457 
 477   0.0000      17.510254       476.4782 
 478   0.0000      17.586634       478.5566 
 479   0.0000      17.597740       478.8588 
 480   0.0000      17.721168       482.2175 
 481   0.0000      17.807641       484.5705 
 482   0.0000      17.824982       485.0424 
 483   0.0000      17.906848       487.2701 
 484   0.0000      17.937606       488.1071 
 485   0.0000      18.027115       490.5428 
 486   0.0000      18.041611       490.9372 
 487   0.0000      18.494473       503.2602 
 488   0.0000      18.657030       507.6836 
 489   0.0000      18.843494       512.7576 
 490   0.0000      18.875593       513.6310 
 491   0.0000      18.956444       515.8311 
 492   0.0000      19.119280       520.2621 
 493   0.0000      19.283745       524.7374 
 494   0.0000      19.560568       532.2701 
 495   0.0000      19.575690       532.6816 
 496   0.0000      19.691595       535.8355 
 497   0.0000      19.837569       539.8077 
 498   0.0000      19.908657       541.7421 
 499   0.0000      20.763070       564.9919 
 500   0.0000      20.906333       568.8902 
 501   0.0000      20.915351       569.1356 
 502   0.0000      20.989130       571.1433 
 503   0.0000      20.990543       571.1817 
 504   0.0000      21.056939       572.9884 
 505   0.0000      21.267011       578.7048 
 506   0.0000      21.433017       583.2220 
 507   0.0000      22.101979       601.4254 
 508   0.0000      23.448401       638.0634 
 509   0.0000      23.616592       642.6401 
 510   0.0000      23.700344       644.9192 
 511   0.0000      23.716036       645.3461 
 512   0.0000      23.756500       646.4472 
 513   0.0000      23.816578       648.0820 
 514   0.0000      23.868515       649.4953 
 515   0.0000      23.925564       651.0477 
 516   0.0000      24.071026       655.0059 
 517   0.0000      24.337298       662.2516 
 518   0.0000      25.108214       683.2292 
 519   0.0000      25.644203       697.8142 
 520   0.0000      26.014835       707.8996 
 521   0.0000      26.938736       733.0403 
 522   0.0000      27.198938       740.1207 
 523   0.0000      27.419896       746.1333 
 524   0.0000      28.516769       775.9807 
 525   0.0000      28.697371       780.8952 
 526   0.0000      30.878716       840.2526 
 527   0.0000      32.272863       878.1892 
 528   0.0000      33.973553       924.4674 
 529   0.0000      34.360050       934.9845 
 530   0.0000      41.479544      1128.7158 
 531   0.0000      41.540089      1130.3633 
 532   0.0000      41.649828      1133.3494 
 533   0.0000      48.169209      1310.7508 
 534   0.0000      48.224585      1312.2577 
 535   0.0000      48.383922      1316.5934 
 536   0.0000      48.960579      1332.2851 
 537   0.0000      49.375965      1343.5883 
 538   0.0000      66.828386      1818.4928 
 539   0.0000      67.009361      1823.4174 
 540   0.0000      67.065185      1824.9365 
 541   0.0000      67.691420      1841.9772 
 542   0.0000      68.939152      1875.9297 
 543   0.0000      91.074922      2478.2746 
 544   0.0000      91.104680      2479.0844 
 545   0.0000      91.138918      2480.0160 
 546   0.0000      91.145449      2480.1938 
 547   0.0000      91.238729      2482.7320 
 548   0.0000      91.336137      2485.3827 
 549   0.0000      92.879734      2527.3860 
 550   0.0000      93.007480      2530.8622 
 551   0.0000      93.542719      2545.4268 
 552   0.0000     105.894083      2881.5245 
 553   0.0000     144.098912      3921.1307 

                    ********************************
                    * MULLIKEN POPULATION ANALYSIS *
                    ********************************

--------------------------------------------
MULLIKEN ATOMIC CHARGES AND SPIN POPULATIONS
--------------------------------------------
   0 N :   -0.178127   -0.000000
   1 O :   -0.200394   -0.000000
   2 H :    0.166935    0.000000
   3 H :    0.105801    0.000000
   4 H :    0.105784   -0.000000
Sum of atomic charges         :   -0.0000000
Sum of atomic spin populations:   -0.0000000

-----------------------------------------------------
MULLIKEN REDUCED ORBITAL CHARGES AND SPIN POPULATIONS
-----------------------------------------------------
CHARGE
  0 N s       :     3.514313  s :     3.514313
      pz      :     1.122671  p :     3.597586
      px      :     1.601246
      py      :     0.873668
      dz2     :     0.003743  d :     0.057053
      dxz     :     0.009117
      dyz     :     0.020708
      dx2y2   :     0.011593
      dxy     :     0.011891
      f0      :     0.002907  f :     0.009785
      f+1     :     0.000341
      f-1     :     0.000928
      f+2     :     0.004290
      f-2     :     0.000698
      f+3     :     0.000333
      f-3     :     0.000287
      g0      :     0.000043  g :    -0.000502
      g+1     :     0.000075
      g-1     :     0.000589
      g+2     :    -0.000138
      g-2     :    -0.000216
      g+3     :    -0.000141
      g-3     :    -0.000348
      g+4     :    -0.000092
      g-4     :    -0.000273
      h0      :     0.000055  h :    -0.000108
      h+1     :    -0.000009
      h-1     :     0.000002
      h+2     :     0.000003
      h-2     :    -0.000011
      h+3     :     0.000004
      h-3     :     0.000020
      h+4     :    -0.000102
      h-4     :    -0.000014
      h+5     :    -0.000034
      h-5     :    -0.000022
  1 O s       :     3.788065  s :     3.788065
      pz      :     1.892424  p :     4.374810
      px      :     1.339848
      py      :     1.142537
      dz2     :     0.005476  d :     0.033693
      dxz     :     0.003264
      dyz     :     0.003921
      dx2y2   :     0.009712
      dxy     :     0.011320
      f0      :    -0.000326  f :     0.006154
      f+1     :     0.000087
      f-1     :     0.000373
      f+2     :     0.000264
      f-2     :    -0.000262
      f+3     :     0.007755
      f-3     :    -0.001737
      g0      :     0.000022  g :    -0.001802
      g+1     :    -0.000071
      g-1     :    -0.000765
      g+2     :     0.000045
      g-2     :    -0.000071
      g+3     :    -0.000444
      g-3     :     0.000023
      g+4     :    -0.001075
      g-4     :     0.000535
      h0      :    -0.000022  h :    -0.000526
      h+1     :     0.000002
      h-1     :     0.000008
      h+2     :    -0.000104
      h-2     :    -0.000001
      h+3     :     0.000008
      h-3     :    -0.000006
      h+4     :    -0.000036
      h-4     :    -0.000132
      h+5     :    -0.000078
      h-5     :    -0.000166
  2 H s       :     0.730784  s :     0.730784
      pz      :     0.047610  p :     0.090192
      px      :     0.018679
      py      :     0.023903
      dz2     :     0.000705  d :     0.007794
      dxz     :     0.004600
      dyz     :     0.000130
      dx2y2   :    -0.003874
      dxy     :     0.006232
      f0      :     0.000461  f :     0.003417
      f+1     :    -0.000106
      f-1     :     0.000216
      f+2     :    -0.000465
      f-2     :     0.001294
      f+3     :     0.000702
      f-3     :     0.001316
      g0      :    -0.000011  g :     0.000878
      g+1     :     0.000093
      g-1     :     0.000099
      g+2     :    -0.000007
      g-2     :     0.000013
      g+3     :     0.000172
      g-3     :     0.000049
      g+4     :     0.000665
      g-4     :    -0.000195
  3 H s       :     0.810177  s :     0.810177
      pz      :     0.021607  p :     0.078296
      px      :     0.036311
      py      :     0.020377
      dz2     :     0.003014  d :     0.005880
      dxz     :     0.000228
      dyz     :    -0.000352
      dx2y2   :     0.001918
      dxy     :     0.001073
      f0      :     0.000032  f :    -0.000090
      f+1     :     0.000003
      f-1     :    -0.000377
      f+2     :    -0.000393
      f-2     :     0.000041
      f+3     :    -0.000116
      f-3     :     0.000719
      g0      :    -0.000161  g :    -0.000064
      g+1     :     0.000051
      g-1     :     0.000079
      g+2     :    -0.000261
      g-2     :    -0.000132
      g+3     :     0.000152
      g-3     :     0.000117
      g+4     :     0.000075
      g-4     :     0.000017
  4 H s       :     0.810201  s :     0.810201
      pz      :     0.021605  p :     0.078290
      px      :     0.036309
      py      :     0.020375
      dz2     :     0.003014  d :     0.005879
      dxz     :     0.000227
      dyz     :    -0.000352
      dx2y2   :     0.001917
      dxy     :     0.001072
      f0      :     0.000033  f :    -0.000090
      f+1     :     0.000003
      f-1     :    -0.000377
      f+2     :    -0.000393
      f-2     :     0.000041
      f+3     :    -0.000116
      f-3     :     0.000719
      g0      :    -0.000161  g :    -0.000064
      g+1     :     0.000051
      g-1     :     0.000079
      g+2     :    -0.000261
      g-2     :    -0.000132
      g+3     :     0.000152
      g-3     :     0.000117
      g+4     :     0.000075
      g-4     :     0.000017

SPIN
  0 N s       :    -0.000000  s :    -0.000000
      pz      :     0.000000  p :    -0.000000
      px      :    -0.000000
      py      :    -0.000000
      dz2     :    -0.000000  d :    -0.000000
      dxz     :     0.000000
      dyz     :    -0.000000
      dx2y2   :    -0.000000
      dxy     :    -0.000000
      f0      :     0.000000  f :    -0.000000
      f+1     :     0.000000
      f-1     :    -0.000000
      f+2     :     0.000000
      f-2     :     0.000000
      f+3     :    -0.000000
      f-3     :     0.000000
      g0      :    -0.000000  g :    -0.000000
      g+1     :    -0.000000
      g-1     :     0.000000
      g+2     :    -0.000000
      g-2     :     0.000000
      g+3     :     0.000000
      g-3     :    -0.000000
      g+4     :     0.000000
      g-4     :    -0.000000
      h0      :     0.000000  h :     0.000000
      h+1     :    -0.000000
      h-1     :     0.000000
      h+2     :     0.000000
      h-2     :    -0.000000
      h+3     :     0.000000
      h-3     :     0.000000
      h+4     :    -0.000000
      h-4     :    -0.000000
      h+5     :    -0.000000
      h-5     :     0.000000
  1 O s       :    -0.000000  s :    -0.000000
      pz      :     0.000000  p :     0.000000
      px      :     0.000000
      py      :     0.000000
      dz2     :    -0.000000  d :     0.000000
      dxz     :    -0.000000
      dyz     :     0.000000
      dx2y2   :     0.000000
      dxy     :    -0.000000
      f0      :     0.000000  f :     0.000000
      f+1     :     0.000000
      f-1     :    -0.000000
      f+2     :     0.000000
      f-2     :     0.000000
      f+3     :    -0.000000
      f-3     :     0.000000
      g0      :    -0.000000  g :    -0.000000
      g+1     :     0.000000
      g-1     :     0.000000
      g+2     :    -0.000000
      g-2     :     0.000000
      g+3     :     0.000000
      g-3     :     0.000000
      g+4     :    -0.000000
      g-4     :    -0.000000
      h0      :     0.000000  h :    -0.000000
      h+1     :    -0.000000
      h-1     :    -0.000000
      h+2     :     0.000000
      h-2     :    -0.000000
      h+3     :     0.000000
      h-3     :     0.000000
      h+4     :     0.000000
      h-4     :    -0.000000
      h+5     :    -0.000000
      h-5     :    -0.000000
  2 H s       :     0.000000  s :     0.000000
      pz      :     0.000000  p :     0.000000
      px      :     0.000000
      py      :     0.000000
      dz2     :     0.000000  d :     0.000000
      dxz     :     0.000000
      dyz     :     0.000000
      dx2y2   :     0.000000
      dxy     :     0.000000
      f0      :     0.000000  f :     0.000000
      f+1     :     0.000000
      f-1     :     0.000000
      f+2     :     0.000000
      f-2     :     0.000000
      f+3     :     0.000000
      f-3     :     0.000000
      g0      :     0.000000  g :     0.000000
      g+1     :     0.000000
      g-1     :     0.000000
      g+2     :     0.000000
      g-2     :     0.000000
      g+3     :     0.000000
      g-3     :     0.000000
      g+4     :     0.000000
      g-4     :     0.000000
  3 H s       :     0.000000  s :     0.000000
      pz      :     0.000000  p :     0.000000
      px      :    -0.000000
      py      :    -0.000000
      dz2     :     0.000000  d :     0.000000
      dxz     :     0.000000
      dyz     :    -0.000000
      dx2y2   :     0.000000
      dxy     :    -0.000000
      f0      :     0.000000  f :    -0.000000
      f+1     :     0.000000
      f-1     :     0.000000
      f+2     :    -0.000000
      f-2     :    -0.000000
      f+3     :     0.000000
      f-3     :    -0.000000
      g0      :     0.000000  g :    -0.000000
      g+1     :     0.000000
      g-1     :    -0.000000
      g+2     :    -0.000000
      g-2     :     0.000000
      g+3     :    -0.000000
      g-3     :    -0.000000
      g+4     :    -0.000000
      g-4     :     0.000000
  4 H s       :    -0.000000  s :    -0.000000
      pz      :     0.000000  p :     0.000000
      px      :     0.000000
      py      :     0.000000
      dz2     :     0.000000  d :     0.000000
      dxz     :     0.000000
      dyz     :    -0.000000
      dx2y2   :     0.000000
      dxy     :    -0.000000
      f0      :    -0.000000  f :    -0.000000
      f+1     :     0.000000
      f-1     :     0.000000
      f+2     :    -0.000000
      f-2     :    -0.000000
      f+3     :     0.000000
      f-3     :    -0.000000
      g0      :    -0.000000  g :    -0.000000
      g+1     :     0.000000
      g-1     :    -0.000000
      g+2     :    -0.000000
      g-2     :     0.000000
      g+3     :    -0.000000
      g-3     :    -0.000000
      g+4     :    -0.000000
      g-4     :     0.000000


                     *******************************
                     * LOEWDIN POPULATION ANALYSIS *
                     *******************************

-------------------------------------------
LOEWDIN ATOMIC CHARGES AND SPIN POPULATIONS
-------------------------------------------
   0 N :    0.951349   -0.000000
   1 O :    0.904339    0.000000
   2 H :   -0.793834    0.000000
   3 H :   -0.530927    0.000000
   4 H :   -0.530927   -0.000000

----------------------------------------------------
LOEWDIN REDUCED ORBITAL CHARGES AND SPIN POPULATIONS
----------------------------------------------------
CHARGE
  0 N s       :     2.654168  s :     2.654168
      pz      :     0.900610  p :     2.671484
      px      :     1.062504
      py      :     0.708370
      dz2     :     0.053337  d :     0.438664
      dxz     :     0.045048
      dyz     :     0.128105
      dx2y2   :     0.113957
      dxy     :     0.098217
      f0      :     0.020944  f :     0.187550
      f+1     :     0.011487
      f-1     :     0.025232
      f+2     :     0.039693
      f-2     :     0.004775
      f+3     :     0.052091
      f-3     :     0.033328
      g0      :     0.003332  g :     0.066583
      g+1     :     0.000311
      g-1     :     0.012129
      g+2     :     0.006530
      g-2     :     0.004463
      g+3     :     0.000289
      g-3     :     0.007325
      g+4     :     0.012371
      g-4     :     0.019833
      h0      :     0.002244  h :     0.030202
      h+1     :     0.000717
      h-1     :     0.002468
      h+2     :     0.003925
      h-2     :     0.000232
      h+3     :     0.003980
      h-3     :     0.002471
      h+4     :     0.002368
      h-4     :     0.000007
      h+5     :     0.006520
      h-5     :     0.005270
  1 O s       :     2.926763  s :     2.926763
      pz      :     1.350215  p :     3.561221
      px      :     1.221504
      py      :     0.989502
      dz2     :     0.029354  d :     0.327697
      dxz     :     0.003548
      dyz     :     0.076537
      dx2y2   :     0.109924
      dxy     :     0.108334
      f0      :     0.021026  f :     0.166314
      f+1     :     0.003510
      f-1     :     0.013844
      f+2     :     0.035021
      f-2     :     0.002662
      f+3     :     0.060853
      f-3     :     0.029399
      g0      :     0.001730  g :     0.078762
      g+1     :     0.000707
      g-1     :     0.018562
      g+2     :     0.004337
      g-2     :     0.002546
      g+3     :     0.004593
      g-3     :     0.012615
      g+4     :     0.009733
      g-4     :     0.023940
      h0      :     0.003788  h :     0.034904
      h+1     :     0.000139
      h-1     :     0.001417
      h+2     :     0.006191
      h-2     :     0.000738
      h+3     :     0.000717
      h-3     :     0.001102
      h+4     :     0.003411
      h-4     :     0.004292
      h+5     :     0.010380
      h-5     :     0.002730
  2 H s       :     0.571741  s :     0.571741
      pz      :     0.142989  p :     0.513959
      px      :     0.246731
      py      :     0.124239
      dz2     :     0.042799  d :     0.440743
      dxz     :     0.127971
      dyz     :     0.018118
      dx2y2   :     0.137052
      dxy     :     0.114803
      f0      :     0.025792  f :     0.186054
      f+1     :     0.010971
      f-1     :     0.009895
      f+2     :     0.028012
      f-2     :     0.019591
      f+3     :     0.045317
      f-3     :     0.046476
      g0      :     0.001992  g :     0.081336
      g+1     :     0.005706
      g-1     :     0.011325
      g+2     :     0.003311
      g-2     :     0.004099
      g+3     :     0.015676
      g-3     :     0.000855
      g+4     :     0.023241
      g-4     :     0.015133
  3 H s       :     0.587075  s :     0.587075
      pz      :     0.149963  p :     0.396556
      px      :     0.160967
      py      :     0.085626
      dz2     :     0.099096  d :     0.323034
      dxz     :     0.073956
      dyz     :     0.057740
      dx2y2   :     0.057004
      dxy     :     0.035237
      f0      :     0.030636  f :     0.143886
      f+1     :     0.012440
      f-1     :     0.022345
      f+2     :     0.026807
      f-2     :     0.017805
      f+3     :     0.016875
      f-3     :     0.016979
      g0      :     0.011639  g :     0.080376
      g+1     :     0.003213
      g-1     :     0.008035
      g+2     :     0.008056
      g-2     :     0.005272
      g+3     :     0.011292
      g-3     :     0.011337
      g+4     :     0.013808
      g-4     :     0.007723
  4 H s       :     0.587075  s :     0.587075
      pz      :     0.149963  p :     0.396556
      px      :     0.160967
      py      :     0.085626
      dz2     :     0.099096  d :     0.323034
      dxz     :     0.073956
      dyz     :     0.057740
      dx2y2   :     0.057004
      dxy     :     0.035237
      f0      :     0.030636  f :     0.143886
      f+1     :     0.012440
      f-1     :     0.022345
      f+2     :     0.026807
      f-2     :     0.017805
      f+3     :     0.016875
      f-3     :     0.016979
      g0      :     0.011639  g :     0.080376
      g+1     :     0.003213
      g-1     :     0.008035
      g+2     :     0.008056
      g-2     :     0.005272
      g+3     :     0.011292
      g-3     :     0.011337
      g+4     :     0.013808
      g-4     :     0.007723

SPIN
  0 N s       :    -0.000000  s :    -0.000000
      pz      :     0.000000  p :     0.000000
      px      :     0.000000
      py      :    -0.000000
      dz2     :     0.000000  d :    -0.000000
      dxz     :     0.000000
      dyz     :     0.000000
      dx2y2   :    -0.000000
      dxy     :    -0.000000
      f0      :     0.000000  f :     0.000000
      f+1     :     0.000000
      f-1     :     0.000000
      f+2     :    -0.000000
      f-2     :    -0.000000
      f+3     :    -0.000000
      f-3     :     0.000000
      g0      :    -0.000000  g :     0.000000
      g+1     :    -0.000000
      g-1     :    -0.000000
      g+2     :    -0.000000
      g-2     :    -0.000000
      g+3     :    -0.000000
      g-3     :     0.000000
      g+4     :     0.000000
      g-4     :    -0.000000
      h0      :     0.000000  h :     0.000000
      h+1     :     0.000000
      h-1     :    -0.000000
      h+2     :    -0.000000
      h-2     :    -0.000000
      h+3     :     0.000000
      h-3     :     0.000000
      h+4     :     0.000000
      h-4     :     0.000000
      h+5     :    -0.000000
      h-5     :    -0.000000
  1 O s       :    -0.000000  s :    -0.000000
      pz      :    -0.000000  p :    -0.000000
      px      :    -0.000000
      py      :     0.000000
      dz2     :    -0.000000  d :     0.000000
      dxz     :    -0.000000
      dyz     :     0.000000
      dx2y2   :     0.000000
      dxy     :    -0.000000
      f0      :     0.000000  f :     0.000000
      f+1     :     0.000000
      f-1     :     0.000000
      f+2     :    -0.000000
      f-2     :     0.000000
      f+3     :     0.000000
      f-3     :    -0.000000
      g0      :    -0.000000  g :    -0.000000
      g+1     :     0.000000
      g-1     :    -0.000000
      g+2     :     0.000000
      g-2     :     0.000000
      g+3     :    -0.000000
      g-3     :    -0.000000
      g+4     :     0.000000
      g-4     :    -0.000000
      h0      :     0.000000  h :     0.000000
      h+1     :     0.000000
      h-1     :    -0.000000
      h+2     :     0.000000
      h-2     :     0.000000
      h+3     :     0.000000
      h-3     :    -0.000000
      h+4     :    -0.000000
      h-4     :    -0.000000
      h+5     :     0.000000
      h-5     :     0.000000
  2 H s       :     0.000000  s :     0.000000
      pz      :     0.000000  p :     0.000000
      px      :     0.000000
      py      :     0.000000
      dz2     :     0.000000  d :     0.000000
      dxz     :     0.000000
      dyz     :    -0.000000
      dx2y2   :    -0.000000
      dxy     :     0.000000
      f0      :     0.000000  f :    -0.000000
      f+1     :    -0.000000
      f-1     :    -0.000000
      f+2     :    -0.000000
      f-2     :     0.000000
      f+3     :    -0.000000
      f-3     :     0.000000
      g0      :    -0.000000  g :    -0.000000
      g+1     :    -0.000000
      g-1     :    -0.000000
      g+2     :     0.000000
      g-2     :    -0.000000
      g+3     :     0.000000
      g-3     :     0.000000
      g+4     :    -0.000000
      g-4     :    -0.000000
  3 H s       :     0.000000  s :     0.000000
      pz      :     0.000000  p :     0.000000
      px      :     0.000000
      py      :    -0.000000
      dz2     :    -0.000000  d :    -0.000000
      dxz     :     0.000000
      dyz     :    -0.000000
      dx2y2   :     0.000000
      dxy     :    -0.000000
      f0      :    -0.000000  f :    -0.000000
      f+1     :    -0.000000
      f-1     :     0.000000
      f+2     :    -0.000000
      f-2     :    -0.000000
      f+3     :    -0.000000
      f-3     :    -0.000000
      g0      :    -0.000000  g :     0.000000
      g+1     :     0.000000
      g-1     :    -0.000000
      g+2     :     0.000000
      g-2     :     0.000000
      g+3     :     0.000000
      g-3     :     0.000000
      g+4     :     0.000000
      g-4     :     0.000000
  4 H s       :    -0.000000  s :    -0.000000
      pz      :     0.000000  p :     0.000000
      px      :     0.000000
      py      :     0.000000
      dz2     :     0.000000  d :     0.000000
      dxz     :     0.000000
      dyz     :    -0.000000
      dx2y2   :     0.000000
      dxy     :    -0.000000
      f0      :    -0.000000  f :    -0.000000
      f+1     :    -0.000000
      f-1     :    -0.000000
      f+2     :    -0.000000
      f-2     :    -0.000000
      f+3     :    -0.000000
      f-3     :    -0.000000
      g0      :     0.000000  g :     0.000000
      g+1     :     0.000000
      g-1     :    -0.000000
      g+2     :     0.000000
      g-2     :    -0.000000
      g+3     :     0.000000
      g-3     :     0.000000
      g+4     :     0.000000
      g-4     :     0.000000


                      *****************************
                      * MAYER POPULATION ANALYSIS *
                      *****************************

  NA   - Mulliken gross atomic population
  ZA   - Total nuclear charge
  QA   - Mulliken gross atomic charge
  VA   - Mayer's total valence
  BVA  - Mayer's bonded valence
  FA   - Mayer's free valence

  ATOM       NA         ZA         QA         VA         BVA        FA
  0 N      7.1781     7.0000    -0.1781     2.9369     2.9369    -0.0000
  1 O      8.2004     8.0000    -0.2004     1.9382     1.9382    -0.0000
  2 H      0.8331     1.0000     0.1669     1.0542     1.0542     0.0000
  3 H      0.8942     1.0000     0.1058     1.0844     1.0844    -0.0000
  4 H      0.8942     1.0000     0.1058     1.0844     1.0844    -0.0000

  Mayer bond orders larger than 0.1
B(  0-N ,  1-O ) :   0.8424 B(  0-N ,  3-H ) :   1.0337 B(  0-N ,  4-H ) :   1.0337 
B(  1-O ,  2-H ) :   1.0258 

-------
TIMINGS
-------

Total SCF time: 0 days 1 hours 10 min 39 sec 

Total time                  ....    4239.883 sec
Sum of individual times     ....    4237.373 sec  ( 99.9%)

Fock matrix formation       ....    4219.802 sec  ( 99.5%)
  XC integration            ....     150.199 sec  (  3.6% of F)
    Basis function eval.    ....      11.296 sec  (  7.5% of XC)
    Density eval.           ....      57.321 sec  ( 38.2% of XC)
    XC-Functional eval.     ....       0.737 sec  (  0.5% of XC)
    XC-Potential eval.      ....      78.163 sec  ( 52.0% of XC)
Diagonalization             ....       5.482 sec  (  0.1%)
Density matrix formation    ....       0.101 sec  (  0.0%)
Population analysis         ....       0.388 sec  (  0.0%)
Initial guess               ....       5.083 sec  (  0.1%)
Orbital Transformation      ....       0.000 sec  (  0.0%)
Orbital Orthonormalization  ....       0.000 sec  (  0.0%)
DIIS solution               ....       3.357 sec  (  0.1%)
Grid generation             ....       3.161 sec  (  0.1%)

-------------------------   --------------------
FINAL SINGLE POINT ENERGY      -131.645550827599
-------------------------   --------------------


                            ***************************************
                            *     ORCA property calculations      *
                            ***************************************

                                    ---------------------
                                    Active property flags
                                    ---------------------
   (+) Dipole Moment
   (+) Polarizability


------------------------------------------------------------------------------
                       ORCA ELECTRIC PROPERTIES CALCULATION
------------------------------------------------------------------------------

Dipole Moment Calculation                       ... on
Quadrupole Moment Calculation                   ... off
Polarizability Calculation                      ... Analytic (CP-SCF)
GBWName                                         ... nh2oh_pbe.gbw
Electron density file                           ... nh2oh_pbe.scfp.tmp
The origin for moment calculation is the CENTER OF MASS  = (-0.007988, -0.060074  0.000000)

-------------
DIPOLE MOMENT
-------------
                                X             Y             Z
Electronic contribution:     -0.10219      -0.83643       0.00000
Nuclear contribution   :      0.14436       1.08095       0.00000
                        -----------------------------------------
Total Dipole Moment    :      0.04216       0.24452       0.00000
                        -----------------------------------------
Magnitude (a.u.)       :      0.24813
Magnitude (Debye)      :      0.63070



--------------------
Rotational spectrum 
--------------------
 
Rotational constants in cm-1:     6.571334     0.830213     0.829911 
Rotational constants in MHz : 197003.632915 24889.156219 24880.112755 

 Dipole components along the rotational axes: 
x,y,z [a.u.] :    -0.247743    -0.013849     0.000000 
x,y,z [Debye]:    -0.629713    -0.035200     0.000000 

 
Transforming and storing MO dipole integrals   ... done

                ... starting polarizability calculation

Opening the Dipole integral file               ... (nh2oh_pbe.dmo.tmp) done
Reading Dipole-MO integrals                    ... done
Solving CP-SCF equations                       ... 

           ************************************************************
           *        Program running with 4 parallel MPI-processes     *
           *              working on a common directory               *
           ************************************************************

------------------------------------------------------------------------------
                           ORCA CP-SCF CALCULATION
------------------------------------------------------------------------------

Input orbitals are from        ... nh2oh_pbe.gbw
Input Perturbation             ... nh2oh_pbe.cpv.tmp
Wavefunction output            ... nh2oh_pbe.cpu.tmp
Perturbation mode              ... Real perturbation (singlet)
Solver                         ... POPLE
Max. number of iterations      ... 200
Convergence tolerance          ... 1.000e-06
Integral handling              ... Direct
Number of perturbations        ... 3
Number of operators            ... 2
Orbital ranges used for CP-SCF:
 Operator 0:  Orbitals   0...  8  to   9...553
 Operator 1:  Orbitals   0...  8  to   9...553
DFT calculation                         ... on
Exchange functional (SCF)               ... PBE
Exchange functional (CP-SCF)            ... PBE
   PBE kappa parameter  XKappa (SCF)    ...  0.804000
   PBE kappa parameter  XKappa (CP-SCF) ...  0.804000
   PBE mue parameter   XMuePBE (SCF)    ...  0.219520
   PBE mue parameter   XMuePBE (CP-SCF) ...  0.219520
Correlation functional (SCF)            ... PBE
Correlation functional (CP-SCF)         ... PBE
   PBE beta parameter CBetaPBE (SCF)    ...  0.066725
   PBE beta parameter CBetaPBE (CP-SCF) ...  0.066725
 LDA part of GGA corr.  LDAOpt (SCF)    ... PW91-LDA
 LDA part of GGA corr.  LDAOpt (CP-SCF) ... PW91-LDA
Variables per vector in CP-SCF ... 9810
Number of vectors sought       ... 3
Recalculating density on grid  ... done
Calculating the xc-kernel      ... done
     CP-SCF ITERATION   0: 
     CP-SCF ITERATION   1:      0.618810482699
     CP-SCF ITERATION   2:      0.015941811460
     CP-SCF ITERATION   3:      0.001677114463
     CP-SCF ITERATION   4:      0.000073596345
     CP-SCF ITERATION   5:      0.000000473035
done
Reading CP-SCF coefficients                    ... done
Doing the polarizability tensor   ... done
Cleaning up                                    ... done

-------------------------
THE POLARIZABILITY TENSOR
-------------------------

The raw cartesian tensor (atomic units):
   19.58371      1.64517      0.00000  
    1.64517     23.11288      0.00000  
    0.00000      0.00000     18.12124  
diagonalized tensor: 
   18.12124     18.93575     23.76083  

   -0.00000      0.93044      0.36645  
    0.00000     -0.36645      0.93044  
    1.00000      0.00000      0.00000  

Isotropic polarizability :  20.27261


Timings for individual modules:

Sum of individual times         ...     7161.407 sec (= 119.357 min)
GTO integral calculation        ...        6.796 sec (=   0.113 min)   0.1 %
SCF iterations                  ...     4240.575 sec (=  70.676 min)  59.2 %
Solution of CP-SCF eqns.        ...     2914.037 sec (=  48.567 min)  40.7 %
                             ****ORCA TERMINATED NORMALLY****
TOTAL RUN TIME: 0 days 1 hours 59 minutes 25 seconds 496 msec
