
                                 *****************
                                 * O   R   C   A *
                                 *****************

           --- An Ab Initio, DFT and Semiempirical electronic structure package ---

                  #######################################################
                  #                        -***-                        #
                  #          Department of theory and spectroscopy      #
                  #               Directorship: Frank Neese             #
                  #        Max Planck Institute fuer Kohlenforschung    #
                  #                Kaiser Wilhelm Platz 1               #
                  #                 D-45470 Muelheim/Ruhr               #
                  #                      Germany                        #
                  #                                                     #
                  #                  All rights reserved                #
                  #                        -***-                        #
                  #######################################################


                         Program Version 4.1.2  - RELEASE  -


 With contributions from (in alphabetic order):
   Daniel Aravena         : Magnetic Properties
   Michael Atanasov       : Ab Initio Ligand Field Theory
   Alexander A. Auer      : GIAO ZORA
   Ute Becker             : Parallelization
   Giovanni Bistoni       : ED, Open-shell LED
   Martin Brehm           : Molecular dynamics
   Dmytro Bykov           : SCF Hessian
   Vijay G. Chilkuri      : MRCI spin determinant printing
   Dipayan Datta          : RHF DLPNO-CCSD density
   Achintya Kumar Dutta   : EOM-CC, STEOM-CC
   Dmitry Ganyushin       : Spin-Orbit,Spin-Spin,Magnetic field MRCI
   Miquel Garcia          : C-PCM Hessian
   Yang Guo               : DLPNO-NEVPT2, CIM, IAO-localization
   Andreas Hansen         : Spin unrestricted coupled pair/coupled cluster methods
   Benjamin Helmich-Paris : CASSCF linear response (MC-RPA)
   Lee Huntington         : MR-EOM, pCC
   Robert Izsak           : Overlap fitted RIJCOSX, COSX-SCS-MP3, EOM
   Christian Kollmar      : KDIIS, OOCD, Brueckner-CCSD(T), CCSD density
   Simone Kossmann        : Meta GGA functionals, TD-DFT gradient, OOMP2, MP2 Hessian
   Martin Krupicka        : AUTO-CI
   Lucas Lang             : DCDCAS
   Dagmar Lenk            : GEPOL surface, SMD
   Dimitrios Liakos       : Extrapolation schemes; parallel MDCI
   Dimitrios Manganas     : ROCIS; embedding schemes
   Dimitrios Pantazis     : SARC Basis sets
   Taras Petrenko         : DFT Hessian,TD-DFT gradient, ASA, ECA, R-Raman, ABS, FL, XAS/XES, NRVS
   Peter Pinski           : DLPNO-MP2, DLPNO-MP2 Gradient
   Christoph Reimann      : Effective Core Potentials
   Marius Retegan         : Local ZFS, SOC
   Christoph Riplinger    : Optimizer, TS searches, QM/MM, DLPNO-CCSD(T), (RO)-DLPNO pert. Triples
   Tobias Risthaus        : Range-separated hybrids, TD-DFT gradient, RPA, STAB
   Michael Roemelt        : Restricted open shell CIS
   Masaaki Saitow         : Open-shell DLPNO
   Barbara Sandhoefer     : DKH picture change effects
   Avijit Sen             : IP-ROCIS
   Kantharuban Sivalingam : CASSCF convergence, NEVPT2, FIC-MRCI
   Bernardo de Souza      : ESD, SOC TD-DFT
   Georgi Stoychev        : AutoAux, RI-MP2 NMR
   Willem Van den Heuvel  : Paramagnetic NMR
   Boris Wezisla          : Elementary symmetry handling
   Frank Wennmohs         : Technical directorship


 We gratefully acknowledge several colleagues who have allowed us to
 interface, adapt or use parts of their codes:
   Stefan Grimme, W. Hujo, H. Kruse,             : VdW corrections, initial TS optimization,
                  C. Bannwarth                     DFT functionals, gCP, sTDA/sTD-DF
   Ed Valeev                                     : LibInt (2-el integral package), F12 methods
   Garnet Chan, S. Sharma, J. Yang, R. Olivares  : DMRG
   Ulf Ekstrom                                   : XCFun DFT Library
   Mihaly Kallay                                 : mrcc  (arbitrary order and MRCC methods)
   Andreas Klamt, Michael Diedenhofen            : otool_cosmo (COSMO solvation model)
   Jiri Pittner, Ondrej Demel                    : Mk-CCSD
   Frank Weinhold                                : gennbo (NPA and NBO analysis)
   Christopher J. Cramer and Donald G. Truhlar   : smd solvation model
   Lars Goerigk                                  : TD-DFT with DH, B97 family of functionals
   V. Asgeirsson, H. Jonsson                     : NEB implementation
   FAccTs GmbH                                   : IRC, NEB, NEB-TS, Multilevel


 Your calculation uses the libint2 library for the computation of 2-el integrals
 For citations please refer to: http://libint.valeyev.net

 This ORCA versions uses:
   CBLAS   interface :  Fast vector & matrix operations
   LAPACKE interface :  Fast linear algebra routines
   SCALAPACK package :  Parallel linear algebra routines


----- Orbital basis set information -----
Your calculation utilizes the basis: aug-pc-4
   H, C-F              : F. Jensen, J. Chem. Phys. 115, 9113 (2001).
                         F. Jensen, J. Chem. Phys. 116, 7372 (2002).
                         F. Jensen, J. Chem. Phys. 117, 9234 (2002).
   Si-Cl               : F. Jensen, T. Helgaker, J. Chem. Phys. 121, 3463 (2004).
   He-B, Ne-Mg, Al, Ar : F. Jensen, J. Phys. Chem. A 111, 11198 (2007).
   K, Ca, Ga-Kr        : F. Jensen, J. Chem. Phys. 136, 094110 (2012).
   Sc-Zn               : F. Jensen, J. Chem. Phys. 138, 014107 (2013).

================================================================================
                                        WARNINGS
                       Please study these warnings very carefully!
================================================================================


INFO   : the flag for use of LIBINT has been found!

================================================================================
                                       INPUT FILE
================================================================================
NAME = nh3o_pbe.inp
|  1> !uks pbe nori aug-pc-4 grid7 nofinalgrid verytightscf
|  2> 
|  3> %maxcore 1500
|  4> 
|  5> %pal nprocs 4 end
|  6> 
|  7> %scf
|  8> 	maxiter 200
|  9> end
| 10> %elprop
| 11> 	dipole true
| 12> 	 polar 1
| 13> 	 maxiter 200
| 14> end
| 15> 
| 16> * xyz 0 1
| 17> N 0.0000000000 0.0000000000 -0.5344777797
| 18> H -0.9458001927 0.0000000000 -0.9350779673
| 19> H 0.4729000069 -0.8190998435 -0.9350776619
| 20> H 0.4729000069 0.8190998435 -0.9350776619
| 21> O 0.0000000000 0.0000000000 0.8183222203
| 22> *
| 23> 
| 24>                          ****END OF INPUT****
================================================================================

                       ****************************
                       * Single Point Calculation *
                       ****************************

---------------------------------
CARTESIAN COORDINATES (ANGSTROEM)
---------------------------------
  N      0.000000    0.000000   -0.534478
  H     -0.945800    0.000000   -0.935078
  H      0.472900   -0.819100   -0.935078
  H      0.472900    0.819100   -0.935078
  O      0.000000    0.000000    0.818322

----------------------------
CARTESIAN COORDINATES (A.U.)
----------------------------
  NO LB      ZA    FRAG     MASS         X           Y           Z
   0 N     7.0000    0    14.007    0.000000    0.000000   -1.010017
   1 H     1.0000    0     1.008   -1.787303    0.000000   -1.767041
   2 H     1.0000    0     1.008    0.893652   -1.547874   -1.767041
   3 H     1.0000    0     1.008    0.893652    1.547874   -1.767041
   4 O     8.0000    0    15.999    0.000000    0.000000    1.546405

--------------------------------
INTERNAL COORDINATES (ANGSTROEM)
--------------------------------
 N      0   0   0     0.000000000000     0.00000000     0.00000000
 H      1   0   0     1.027140942041     0.00000000     0.00000000
 H      1   2   0     1.027151028703   105.77319330     0.00000000
 H      1   2   3     1.027151028703   105.77319330   111.92080678
 O      1   2   3     1.352800000000   112.95542143   235.96040339

---------------------------
INTERNAL COORDINATES (A.U.)
---------------------------
 N      0   0   0     0.000000000000     0.00000000     0.00000000
 H      1   0   0     1.941015081395     0.00000000     0.00000000
 H      1   2   0     1.941034142425   105.77319330     0.00000000
 H      1   2   3     1.941034142425   105.77319330   111.92080678
 O      1   2   3     2.556421513969   112.95542143   235.96040339

---------------------
BASIS SET INFORMATION
---------------------
There are 3 groups of distinct atoms

 Group   1 Type N   : 27s12p7d4f3g2h contracted to 9s8p7d4f3g2h pattern {1191111111/51111111/1111111/1111/111/11}
 Group   2 Type H   : 12s7p4d3f2g contracted to 8s7p4d3f2g pattern {51111111/1111111/1111/111/11}
 Group   3 Type O   : 27s12p7d4f3g2h contracted to 9s8p7d4f3g2h pattern {1191111111/51111111/1111111/1111/111/11}

Atom   0N    basis set group =>   1
Atom   1H    basis set group =>   2
Atom   2H    basis set group =>   2
Atom   3H    basis set group =>   2
Atom   4O    basis set group =>   3


           ************************************************************
           *        Program running with 4 parallel MPI-processes     *
           *              working on a common directory               *
           ************************************************************
------------------------------------------------------------------------------
                           ORCA GTO INTEGRAL CALCULATION
------------------------------------------------------------------------------

                         BASIS SET STATISTICS AND STARTUP INFO

 # of primitive gaussian shells          ...  194
 # of primitive gaussian functions       ...  626
 # of contracted shells                  ...  138
 # of contracted basis functions         ...  554
 Highest angular momentum                ...    5
 Maximum contraction depth               ...   11
 Integral package used                   ... LIBINT
 Integral threshhold            Thresh   ...  1.000e-12
 Primitive cut-off              TCut     ...  1.000e-14


------------------------------ INTEGRAL EVALUATION ----------------------------


 * One electron integrals 
 Pre-screening matrix                    ... done
 Shell pair data                         ... done (   0.003 sec)



           ************************************************************
           *        Program running with 4 parallel MPI-processes     *
           *              working on a common directory               *
           ************************************************************
-------------------------------------------------------------------------------
                                 ORCA SCF
-------------------------------------------------------------------------------

------------
SCF SETTINGS
------------
Hamiltonian:
 Density Functional     Method          .... DFT(GTOs)
 Exchange Functional    Exchange        .... PBE
   PBE kappa parameter   XKappa         ....  0.804000
   PBE mue parameter    XMuePBE         ....  0.219520
 Correlation Functional Correlation     .... PBE
   PBE beta parameter  CBetaPBE         ....  0.066725
 LDA part of GGA corr.  LDAOpt          .... PW91-LDA
 Gradients option       PostSCFGGA      .... off
   Density functional embedding theory  .... OFF
   NL short-range parameter             ....  6.400000


General Settings:
 Integral files         IntName         .... nh3o_pbe
 Hartree-Fock type      HFTyp           .... UHF
 Total Charge           Charge          ....    0
 Multiplicity           Mult            ....    1
 Number of Electrons    NEL             ....   18
 Basis Dimension        Dim             ....  554
 Nuclear Repulsion      ENuc            ....     40.0686162132 Eh

Convergence Acceleration:
 DIIS                   CNVDIIS         .... on
   Start iteration      DIISMaxIt       ....    12
   Startup error        DIISStart       ....  0.200000
   # of expansion vecs  DIISMaxEq       ....     5
   Bias factor          DIISBfac        ....   1.050
   Max. coefficient     DIISMaxC        ....  10.000
 Newton-Raphson         CNVNR           .... off
 SOSCF                  CNVSOSCF        .... off
 Level Shifting         CNVShift        .... on
   Level shift para.    LevelShift      ....    0.2500
   Turn off err/grad.   ShiftErr        ....    0.0010
 Zerner damping         CNVZerner       .... off
 Static damping         CNVDamp         .... on
   Fraction old density DampFac         ....    0.7000
   Max. Damping (<1)    DampMax         ....    0.9800
   Min. Damping (>=0)   DampMin         ....    0.0000
   Turn off err/grad.   DampErr         ....    0.1000
 Fernandez-Rico         CNVRico         .... off

SCF Procedure:
 Maximum # iterations   MaxIter         ....   200
 SCF integral mode      SCFMode         .... Direct
   Integral package                     .... LIBINT
 Reset frequency        DirectResetFreq ....    20
 Integral Threshold     Thresh          ....  1.000e-12 Eh
 Primitive CutOff       TCut            ....  1.000e-14 Eh

Convergence Tolerance:
 Convergence Check Mode ConvCheckMode   .... Total+1el-Energy
 Convergence forced     ConvForced      .... 0
 Energy Change          TolE            ....  1.000e-09 Eh
 1-El. energy change                    ....  1.000e-06 Eh
 DIIS Error             TolErr          ....  1.000e-08


Diagonalization of the overlap matrix:
Smallest eigenvalue                        ... 1.536e-07
Time for diagonalization                   ...    0.118 sec
Threshold for overlap eigenvalues          ... 1.000e-08
Number of eigenvalues below threshold      ... 0
Time for construction of square roots      ...    0.068 sec
Total time needed                          ...    0.188 sec

-------------------
DFT GRID GENERATION
-------------------

General Integration Accuracy     IntAcc      ...  5.670
Radial Grid Type                 RadialGrid  ... Gauss-Chebyshev
Angular Grid (max. acc.)         AngularGrid ... Lebedev-770
Angular grid pruning method      GridPruning ... 3 (G Style)
Weight generation scheme         WeightScheme... Becke
Basis function cutoff            BFCut       ...    1.0000e-12
Integration weight cutoff        WCut        ...    1.0000e-14
Grids for H and He will be reduced by one unit

# of grid points (after initial pruning)     ... 103552 (   0.0 sec)
# of grid points (after weights+screening)   ... 100529 (   0.0 sec)
nearest neighbour list constructed           ...    0.0 sec
Grid point re-assignment to atoms done       ...    0.0 sec
Grid point division into batches done        ...    1.9 sec
Reduced shell lists constructed in    2.4 sec

Total number of grid points                  ...   100529
Total number of batches                      ...     1573
Average number of points per batch           ...       63
Average number of grid points per atom       ...    20106
Average number of shells per batch           ...   106.30 (77.03%)
Average number of basis functions per batch  ...   438.78 (79.20%)
Average number of large shells per batch     ...    96.31 (90.60%)
Average number of large basis fcns per batch ...   399.86 (91.13%)
Maximum spatial batch extension              ...  10.71, 12.13, 11.21 au
Average spatial batch extension              ...   0.40,  0.43,  0.42 au

Time for grid setup =    2.452 sec

------------------------------
INITIAL GUESS: MODEL POTENTIAL
------------------------------
Loading Hartree-Fock densities                     ... done
Calculating cut-offs                               ... done
Setting up the integral package                    ... done
Initializing the effective Hamiltonian             ... done
Starting the Coulomb interaction                   ... done (   0.1 sec)
Reading the grid                                   ... done
Mapping shells                                     ... done
Starting the XC term evaluation                    ... done (   3.5 sec)
  promolecular density results
     # of electrons  =     17.998530800
     EX              =    -15.552162109
     EC              =     -0.588227433
     EX+EC           =    -16.140389542
Transforming the Hamiltonian                       ... done (   0.0 sec)
Diagonalizing the Hamiltonian                      ... done (   0.1 sec)
Back transforming the eigenvectors                 ... done (   0.0 sec)
Now organizing SCF variables                       ... done
                      ------------------
                      INITIAL GUESS DONE (   6.2 sec)
                      ------------------
--------------
SCF ITERATIONS
--------------
ITER       Energy         Delta-E        Max-DP      RMS-DP      [F,P]     Damp
               ***  Starting incremental Fock matrix formation  ***
  0   -131.4666319743   0.000000000000 0.02330731  0.00021517  0.3254984 0.7000
  1   -131.5454299723  -0.078797997983 0.01531477  0.00015093  0.0743227 0.7000
                               ***Turning on DIIS***
  2   -131.5603882307  -0.014958258475 0.01701045  0.00019071  0.0409496 0.0000
  3   -131.6062612941  -0.045873063334 0.01089142  0.00012150  0.0412222 0.0000
  4   -131.6092454476  -0.002984153481 0.00461097  0.00005049  0.0522706 0.0000
  5   -131.6114230279  -0.002177580371 0.00299454  0.00002501  0.0114395 0.0000
  6   -131.6115906533  -0.000167625380 0.00153906  0.00001685  0.0042125 0.0000
  7   -131.6116160067  -0.000025353371 0.00532132  0.00004618  0.0007119 0.0000
  8   -131.6116179779  -0.000001971188 0.00009930  0.00000105  0.0003751 0.0000
  9   -131.6116181483  -0.000000170421 0.00004316  0.00000030  0.0000830 0.0000
 10   -131.6116181590  -0.000000010692 0.00003898  0.00000018  0.0000055 0.0000
 11   -131.6116181591  -0.000000000081 0.00006983  0.00000041  0.0000027 0.0000
 12   -131.6116181591  -0.000000000007 0.00010073  0.00000057  0.0000004 0.0000
 13   -131.6116181591  -0.000000000005 0.00041769  0.00000209  0.0000003 0.0000
 14   -131.6116181591   0.000000000004 0.00034792  0.00000214  0.0000001 0.0000
                 **** Energy Check signals convergence ****

               *****************************************************
               *                     SUCCESS                       *
               *           SCF CONVERGED AFTER  15 CYCLES          *
               *****************************************************


----------------
TOTAL SCF ENERGY
----------------

Total Energy       :         -131.61161816 Eh           -3581.33420 eV

Components:
Nuclear Repulsion  :           40.06861621 Eh            1090.32248 eV
Electronic Energy  :         -171.68023437 Eh           -4671.65668 eV
One Electron Energy:         -259.06139540 Eh           -7049.41895 eV
Two Electron Energy:           87.38116103 Eh            2377.76227 eV

Virial components:
Potential Energy   :         -262.81156799 Eh           -7151.46634 eV
Kinetic Energy     :          131.19994983 Eh            3570.13214 eV
Virial Ratio       :            2.00313772


DFT components:
N(Alpha)           :        8.999999873781 electrons
N(Beta)            :        8.999999873781 electrons
N(Total)           :       17.999999747562 electrons
E(X)               :      -15.838219636722 Eh       
E(C)               :       -0.593261221065 Eh       
E(XC)              :      -16.431480857787 Eh       
DFET-embed. en.    :        0.000000000000 Eh       

---------------
SCF CONVERGENCE
---------------

  Last Energy change         ...   -8.6686e-12  Tolerance :   1.0000e-09
  Last MAX-Density change    ...    2.3374e-04  Tolerance :   1.0000e-08
  Last RMS-Density change    ...    1.3142e-06  Tolerance :   1.0000e-09
  Last DIIS Error            ...    1.3199e-08  Tolerance :   1.0000e-08

             **** THE GBW FILE WAS UPDATED (nh3o_pbe.gbw) ****
             **** DENSITY FILE WAS UPDATED (nh3o_pbe.scfp.tmp) ****
             **** ENERGY FILE WAS UPDATED (nh3o_pbe.en.tmp) ****
----------------------
UHF SPIN CONTAMINATION
----------------------

Warning: in a DFT calculation there is little theoretical justification to 
         calculate <S**2> as in Hartree-Fock theory. We will do it anyways
         but you should keep in mind that the values have only limited relevance

Expectation value of <S**2>     :     0.000000
Ideal value S*(S+1) for S=0.0   :     0.000000
Deviation                       :     0.000000

----------------
ORBITAL ENERGIES
----------------
                 SPIN UP ORBITALS
  NO   OCC          E(Eh)            E(eV) 
   0   1.0000     -18.679328      -508.2904 
   1   1.0000     -14.126534      -384.4025 
   2   1.0000      -0.972206       -26.4551 
   3   1.0000      -0.738562       -20.0973 
   4   1.0000      -0.519755       -14.1433 
   5   1.0000      -0.519754       -14.1432 
   6   1.0000      -0.383517       -10.4360 
   7   1.0000      -0.171570        -4.6687 
   8   1.0000      -0.171570        -4.6687 
   9   0.0000      -0.055648        -1.5143 
  10   0.0000      -0.002917        -0.0794 
  11   0.0000      -0.002916        -0.0793 
  12   0.0000       0.008047         0.2190 
  13   0.0000       0.024435         0.6649 
  14   0.0000       0.039449         1.0735 
  15   0.0000       0.039449         1.0735 
  16   0.0000       0.045353         1.2341 
  17   0.0000       0.045354         1.2341 
  18   0.0000       0.051496         1.4013 
  19   0.0000       0.054796         1.4911 
  20   0.0000       0.054797         1.4911 
  21   0.0000       0.063151         1.7184 
  22   0.0000       0.101169         2.7529 
  23   0.0000       0.101169         2.7529 
  24   0.0000       0.102553         2.7906 
  25   0.0000       0.114592         3.1182 
  26   0.0000       0.114593         3.1182 
  27   0.0000       0.117564         3.1991 
  28   0.0000       0.117932         3.2091 
  29   0.0000       0.125088         3.4038 
  30   0.0000       0.125098         3.4041 
  31   0.0000       0.133965         3.6454 
  32   0.0000       0.146942         3.9985 
  33   0.0000       0.150532         4.0962 
  34   0.0000       0.150534         4.0962 
  35   0.0000       0.156048         4.2463 
  36   0.0000       0.156054         4.2464 
  37   0.0000       0.159595         4.3428 
  38   0.0000       0.191034         5.1983 
  39   0.0000       0.191058         5.1989 
  40   0.0000       0.214514         5.8372 
  41   0.0000       0.214996         5.8503 
  42   0.0000       0.215310         5.8589 
  43   0.0000       0.215312         5.8589 
  44   0.0000       0.224467         6.1081 
  45   0.0000       0.224467         6.1081 
  46   0.0000       0.233981         6.3669 
  47   0.0000       0.233981         6.3670 
  48   0.0000       0.234067         6.3693 
  49   0.0000       0.245855         6.6901 
  50   0.0000       0.253837         6.9073 
  51   0.0000       0.253839         6.9073 
  52   0.0000       0.263212         7.1624 
  53   0.0000       0.267570         7.2809 
  54   0.0000       0.268018         7.2931 
  55   0.0000       0.268027         7.2934 
  56   0.0000       0.289155         7.8683 
  57   0.0000       0.296610         8.0712 
  58   0.0000       0.301858         8.2140 
  59   0.0000       0.301882         8.2146 
  60   0.0000       0.307946         8.3796 
  61   0.0000       0.307950         8.3797 
  62   0.0000       0.322503         8.7758 
  63   0.0000       0.333933         9.0868 
  64   0.0000       0.333939         9.0869 
  65   0.0000       0.354226         9.6390 
  66   0.0000       0.354241         9.6394 
  67   0.0000       0.359005         9.7690 
  68   0.0000       0.359008         9.7691 
  69   0.0000       0.365954         9.9581 
  70   0.0000       0.366250         9.9662 
  71   0.0000       0.370684        10.0868 
  72   0.0000       0.370686        10.0869 
  73   0.0000       0.394942        10.7469 
  74   0.0000       0.394968        10.7476 
  75   0.0000       0.418955        11.4003 
  76   0.0000       0.424379        11.5479 
  77   0.0000       0.450416        12.2564 
  78   0.0000       0.450420        12.2565 
  79   0.0000       0.452055        12.3011 
  80   0.0000       0.461244        12.5511 
  81   0.0000       0.464416        12.6374 
  82   0.0000       0.464416        12.6374 
  83   0.0000       0.465478        12.6663 
  84   0.0000       0.469170        12.7668 
  85   0.0000       0.469178        12.7670 
  86   0.0000       0.472733        12.8637 
  87   0.0000       0.472734        12.8637 
  88   0.0000       0.473968        12.8973 
  89   0.0000       0.488903        13.3037 
  90   0.0000       0.488907        13.3038 
  91   0.0000       0.490167        13.3381 
  92   0.0000       0.498157        13.5556 
  93   0.0000       0.500580        13.6215 
  94   0.0000       0.500592        13.6218 
  95   0.0000       0.506496        13.7824 
  96   0.0000       0.513981        13.9861 
  97   0.0000       0.526885        14.3373 
  98   0.0000       0.526896        14.3376 
  99   0.0000       0.553351        15.0574 
 100   0.0000       0.575409        15.6577 
 101   0.0000       0.585505        15.9324 
 102   0.0000       0.588151        16.0044 
 103   0.0000       0.588154        16.0045 
 104   0.0000       0.597383        16.2556 
 105   0.0000       0.597384        16.2557 
 106   0.0000       0.603323        16.4173 
 107   0.0000       0.603333        16.4175 
 108   0.0000       0.606233        16.4964 
 109   0.0000       0.616876        16.7860 
 110   0.0000       0.616888        16.7864 
 111   0.0000       0.656026        17.8514 
 112   0.0000       0.656196        17.8560 
 113   0.0000       0.656210        17.8564 
 114   0.0000       0.665724        18.1153 
 115   0.0000       0.665746        18.1159 
 116   0.0000       0.715876        19.4800 
 117   0.0000       0.715877        19.4800 
 118   0.0000       0.725916        19.7532 
 119   0.0000       0.726799        19.7772 
 120   0.0000       0.736868        20.0512 
 121   0.0000       0.736870        20.0513 
 122   0.0000       0.750233        20.4149 
 123   0.0000       0.754236        20.5238 
 124   0.0000       0.754237        20.5238 
 125   0.0000       0.767282        20.8788 
 126   0.0000       0.767285        20.8789 
 127   0.0000       0.769750        20.9460 
 128   0.0000       0.770887        20.9769 
 129   0.0000       0.770888        20.9769 
 130   0.0000       0.771710        20.9993 
 131   0.0000       0.783269        21.3138 
 132   0.0000       0.786339        21.3974 
 133   0.0000       0.786340        21.3974 
 134   0.0000       0.796431        21.6720 
 135   0.0000       0.820243        22.3199 
 136   0.0000       0.820246        22.3200 
 137   0.0000       0.828304        22.5393 
 138   0.0000       0.838259        22.8102 
 139   0.0000       0.838276        22.8106 
 140   0.0000       0.847284        23.0558 
 141   0.0000       0.850844        23.1526 
 142   0.0000       0.850845        23.1527 
 143   0.0000       0.856328        23.3019 
 144   0.0000       0.858226        23.3535 
 145   0.0000       0.858231        23.3536 
 146   0.0000       0.869083        23.6490 
 147   0.0000       0.872030        23.7291 
 148   0.0000       0.875136        23.8137 
 149   0.0000       0.875139        23.8137 
 150   0.0000       0.881077        23.9753 
 151   0.0000       0.881090        23.9757 
 152   0.0000       0.905654        24.6441 
 153   0.0000       0.905663        24.6443 
 154   0.0000       0.916410        24.9368 
 155   0.0000       0.922619        25.1057 
 156   0.0000       0.956145        26.0180 
 157   0.0000       0.956145        26.0180 
 158   0.0000       0.960725        26.1427 
 159   0.0000       0.965989        26.2859 
 160   0.0000       0.966001        26.2862 
 161   0.0000       0.969303        26.3761 
 162   0.0000       0.992221        26.9997 
 163   0.0000       1.001392        27.2493 
 164   0.0000       1.024724        27.8842 
 165   0.0000       1.034934        28.1620 
 166   0.0000       1.034937        28.1621 
 167   0.0000       1.051677        28.6176 
 168   0.0000       1.051683        28.6178 
 169   0.0000       1.072860        29.1940 
 170   0.0000       1.074091        29.2275 
 171   0.0000       1.074100        29.2277 
 172   0.0000       1.090326        29.6693 
 173   0.0000       1.090338        29.6696 
 174   0.0000       1.115695        30.3596 
 175   0.0000       1.115707        30.3599 
 176   0.0000       1.122262        30.5383 
 177   0.0000       1.130461        30.7614 
 178   0.0000       1.138960        30.9927 
 179   0.0000       1.138965        30.9928 
 180   0.0000       1.153519        31.3888 
 181   0.0000       1.153521        31.3889 
 182   0.0000       1.184181        32.2232 
 183   0.0000       1.184187        32.2234 
 184   0.0000       1.185598        32.2618 
 185   0.0000       1.249677        34.0054 
 186   0.0000       1.298950        35.3462 
 187   0.0000       1.298951        35.3463 
 188   0.0000       1.329237        36.1704 
 189   0.0000       1.333432        36.2845 
 190   0.0000       1.333434        36.2846 
 191   0.0000       1.333874        36.2966 
 192   0.0000       1.339924        36.4612 
 193   0.0000       1.339925        36.4612 
 194   0.0000       1.375429        37.4273 
 195   0.0000       1.375433        37.4274 
 196   0.0000       1.375657        37.4335 
 197   0.0000       1.413514        38.4637 
 198   0.0000       1.413520        38.4638 
 199   0.0000       1.450509        39.4704 
 200   0.0000       1.450529        39.4709 
 201   0.0000       1.512909        41.1683 
 202   0.0000       1.523331        41.4519 
 203   0.0000       1.555697        42.3327 
 204   0.0000       1.555698        42.3327 
 205   0.0000       1.597072        43.4585 
 206   0.0000       1.619499        44.0688 
 207   0.0000       1.619511        44.0691 
 208   0.0000       1.628996        44.3272 
 209   0.0000       1.644737        44.7556 
 210   0.0000       1.685622        45.8681 
 211   0.0000       1.685623        45.8681 
 212   0.0000       1.710799        46.5532 
 213   0.0000       1.748734        47.5855 
 214   0.0000       1.748745        47.5858 
 215   0.0000       1.782929        48.5160 
 216   0.0000       1.782938        48.5162 
 217   0.0000       1.788802        48.6758 
 218   0.0000       1.815205        49.3943 
 219   0.0000       1.815208        49.3943 
 220   0.0000       1.817954        49.4691 
 221   0.0000       1.861851        50.6636 
 222   0.0000       1.861855        50.6637 
 223   0.0000       1.939974        52.7894 
 224   0.0000       1.939991        52.7898 
 225   0.0000       1.948644        53.0253 
 226   0.0000       1.956863        53.2489 
 227   0.0000       2.061308        56.0910 
 228   0.0000       2.061313        56.0912 
 229   0.0000       2.077958        56.5441 
 230   0.0000       2.131251        57.9943 
 231   0.0000       2.131254        57.9944 
 232   0.0000       2.159915        58.7743 
 233   0.0000       2.204352        59.9835 
 234   0.0000       2.273688        61.8702 
 235   0.0000       2.273688        61.8702 
 236   0.0000       2.302009        62.6409 
 237   0.0000       2.360285        64.2266 
 238   0.0000       2.361247        64.2528 
 239   0.0000       2.361256        64.2531 
 240   0.0000       2.522530        68.6415 
 241   0.0000       2.522538        68.6417 
 242   0.0000       2.533720        68.9460 
 243   0.0000       2.542689        69.1901 
 244   0.0000       2.542694        69.1902 
 245   0.0000       2.681249        72.9605 
 246   0.0000       2.681253        72.9606 
 247   0.0000       2.699486        73.4567 
 248   0.0000       2.720142        74.0188 
 249   0.0000       2.787731        75.8580 
 250   0.0000       2.843201        77.3674 
 251   0.0000       2.853661        77.6521 
 252   0.0000       2.853665        77.6522 
 253   0.0000       2.930874        79.7531 
 254   0.0000       2.930883        79.7534 
 255   0.0000       3.084119        83.9231 
 256   0.0000       3.139017        85.4170 
 257   0.0000       3.139024        85.4172 
 258   0.0000       3.221195        87.6532 
 259   0.0000       3.221201        87.6533 
 260   0.0000       3.246694        88.3470 
 261   0.0000       3.267256        88.9066 
 262   0.0000       3.267264        88.9068 
 263   0.0000       3.412458        92.8577 
 264   0.0000       3.445019        93.7437 
 265   0.0000       3.451259        93.9135 
 266   0.0000       3.451267        93.9137 
 267   0.0000       3.512179        95.5712 
 268   0.0000       3.540711        96.3476 
 269   0.0000       3.540718        96.3478 
 270   0.0000       3.621164        98.5369 
 271   0.0000       3.681752       100.1856 
 272   0.0000       3.681757       100.1857 
 273   0.0000       3.736615       101.6785 
 274   0.0000       3.736617       101.6785 
 275   0.0000       3.744960       101.9055 
 276   0.0000       3.781982       102.9130 
 277   0.0000       3.781993       102.9132 
 278   0.0000       3.853079       104.8476 
 279   0.0000       3.940158       107.2171 
 280   0.0000       3.964002       107.8660 
 281   0.0000       3.964009       107.8662 
 282   0.0000       4.077023       110.9414 
 283   0.0000       4.129345       112.3652 
 284   0.0000       4.129359       112.3656 
 285   0.0000       4.197533       114.2207 
 286   0.0000       4.226168       114.9999 
 287   0.0000       4.226174       115.0000 
 288   0.0000       4.240120       115.3795 
 289   0.0000       4.369839       118.9094 
 290   0.0000       4.392809       119.5344 
 291   0.0000       4.392816       119.5346 
 292   0.0000       4.464039       121.4727 
 293   0.0000       4.464045       121.4729 
 294   0.0000       4.523231       123.0834 
 295   0.0000       4.523236       123.0835 
 296   0.0000       4.578273       124.5811 
 297   0.0000       4.578288       124.5815 
 298   0.0000       4.659687       126.7965 
 299   0.0000       4.659700       126.7969 
 300   0.0000       4.660742       126.8252 
 301   0.0000       4.720598       128.4540 
 302   0.0000       4.793135       130.4278 
 303   0.0000       4.793144       130.4281 
 304   0.0000       4.851375       132.0126 
 305   0.0000       4.882281       132.8536 
 306   0.0000       4.927080       134.0727 
 307   0.0000       4.927099       134.0732 
 308   0.0000       5.132057       139.6504 
 309   0.0000       5.196876       141.4142 
 310   0.0000       5.196879       141.4143 
 311   0.0000       5.362936       145.9329 
 312   0.0000       5.362944       145.9331 
 313   0.0000       5.376388       146.2990 
 314   0.0000       5.394044       146.7794 
 315   0.0000       5.402120       146.9992 
 316   0.0000       5.402123       146.9992 
 317   0.0000       5.466908       148.7621 
 318   0.0000       5.563021       151.3775 
 319   0.0000       5.577751       151.7783 
 320   0.0000       5.577757       151.7785 
 321   0.0000       5.630903       153.2247 
 322   0.0000       5.654758       153.8738 
 323   0.0000       5.654782       153.8744 
 324   0.0000       5.705901       155.2655 
 325   0.0000       6.016630       163.7208 
 326   0.0000       6.016633       163.7209 
 327   0.0000       6.065711       165.0564 
 328   0.0000       6.096094       165.8832 
 329   0.0000       6.096101       165.8833 
 330   0.0000       6.104329       166.1072 
 331   0.0000       6.207458       168.9135 
 332   0.0000       6.286116       171.0539 
 333   0.0000       6.286122       171.0541 
 334   0.0000       6.412121       174.4827 
 335   0.0000       6.456263       175.6839 
 336   0.0000       6.456276       175.6842 
 337   0.0000       6.521470       177.4582 
 338   0.0000       6.668408       181.4566 
 339   0.0000       6.668413       181.4568 
 340   0.0000       6.793794       184.8685 
 341   0.0000       6.910488       188.0439 
 342   0.0000       6.910488       188.0439 
 343   0.0000       6.940134       188.8507 
 344   0.0000       7.079008       192.6296 
 345   0.0000       7.079014       192.6298 
 346   0.0000       7.234247       196.8539 
 347   0.0000       7.384758       200.9495 
 348   0.0000       7.384767       200.9497 
 349   0.0000       7.397816       201.3048 
 350   0.0000       7.520716       204.6491 
 351   0.0000       7.520727       204.6494 
 352   0.0000       7.588435       206.4918 
 353   0.0000       7.916341       215.4146 
 354   0.0000       7.916348       215.4148 
 355   0.0000       8.071495       219.6366 
 356   0.0000       8.071507       219.6369 
 357   0.0000       8.100832       220.4349 
 358   0.0000       8.457393       230.1374 
 359   0.0000       8.457400       230.1376 
 360   0.0000       8.550793       232.6789 
 361   0.0000       8.704377       236.8581 
 362   0.0000       8.797069       239.3804 
 363   0.0000       8.797076       239.3806 
 364   0.0000       8.997036       244.8218 
 365   0.0000       9.068131       246.7564 
 366   0.0000       9.068146       246.7568 
 367   0.0000       9.194664       250.1995 
 368   0.0000       9.218774       250.8556 
 369   0.0000       9.218782       250.8558 
 370   0.0000       9.283337       252.6124 
 371   0.0000       9.347386       254.3553 
 372   0.0000       9.347419       254.3562 
 373   0.0000       9.452521       257.2162 
 374   0.0000       9.498766       258.4746 
 375   0.0000       9.498768       258.4746 
 376   0.0000       9.611188       261.5337 
 377   0.0000       9.694409       263.7983 
 378   0.0000       9.694415       263.7985 
 379   0.0000       9.825143       267.3557 
 380   0.0000       9.825150       267.3559 
 381   0.0000       9.946214       270.6503 
 382   0.0000       9.946216       270.6503 
 383   0.0000      10.148955       276.1671 
 384   0.0000      10.148967       276.1674 
 385   0.0000      10.160843       276.4906 
 386   0.0000      10.247011       278.8353 
 387   0.0000      10.302629       280.3488 
 388   0.0000      10.302652       280.3494 
 389   0.0000      10.318754       280.7876 
 390   0.0000      10.830691       294.7181 
 391   0.0000      11.228792       305.5510 
 392   0.0000      11.228811       305.5515 
 393   0.0000      11.311931       307.8133 
 394   0.0000      11.350569       308.8647 
 395   0.0000      11.350570       308.8647 
 396   0.0000      11.448583       311.5318 
 397   0.0000      11.492064       312.7150 
 398   0.0000      11.492065       312.7150 
 399   0.0000      11.603266       315.7409 
 400   0.0000      11.824176       321.7522 
 401   0.0000      11.909501       324.0740 
 402   0.0000      11.909529       324.0748 
 403   0.0000      12.059412       328.1533 
 404   0.0000      12.059420       328.1535 
 405   0.0000      12.144535       330.4696 
 406   0.0000      12.144536       330.4696 
 407   0.0000      12.173451       331.2564 
 408   0.0000      12.173452       331.2565 
 409   0.0000      12.186444       331.6100 
 410   0.0000      12.352347       336.1244 
 411   0.0000      12.367991       336.5501 
 412   0.0000      12.496894       340.0578 
 413   0.0000      12.506190       340.3107 
 414   0.0000      12.506192       340.3108 
 415   0.0000      12.533901       341.0648 
 416   0.0000      12.599538       342.8509 
 417   0.0000      12.599575       342.8519 
 418   0.0000      12.684311       345.1576 
 419   0.0000      12.684316       345.1578 
 420   0.0000      12.739702       346.6649 
 421   0.0000      12.739712       346.6652 
 422   0.0000      12.740571       346.6886 
 423   0.0000      12.801385       348.3434 
 424   0.0000      12.891951       350.8078 
 425   0.0000      12.918260       351.5237 
 426   0.0000      12.918270       351.5240 
 427   0.0000      12.971249       352.9656 
 428   0.0000      12.985314       353.3484 
 429   0.0000      12.985327       353.3487 
 430   0.0000      13.009424       354.0044 
 431   0.0000      13.097958       356.4136 
 432   0.0000      13.135590       357.4376 
 433   0.0000      13.135591       357.4376 
 434   0.0000      13.401886       364.6839 
 435   0.0000      13.401894       364.6841 
 436   0.0000      13.657722       371.6455 
 437   0.0000      13.657729       371.6457 
 438   0.0000      13.929553       379.0424 
 439   0.0000      14.004332       381.0773 
 440   0.0000      14.069352       382.8465 
 441   0.0000      14.181995       385.9117 
 442   0.0000      14.182027       385.9126 
 443   0.0000      14.412686       392.1891 
 444   0.0000      14.455295       393.3486 
 445   0.0000      14.455346       393.3500 
 446   0.0000      15.119019       411.4094 
 447   0.0000      15.243063       414.7848 
 448   0.0000      15.243083       414.7854 
 449   0.0000      15.543051       422.9479 
 450   0.0000      15.635709       425.4693 
 451   0.0000      15.635715       425.4694 
 452   0.0000      15.727918       427.9784 
 453   0.0000      15.923298       433.2950 
 454   0.0000      15.923303       433.2951 
 455   0.0000      15.966741       434.4771 
 456   0.0000      15.966752       434.4774 
 457   0.0000      16.121295       438.6828 
 458   0.0000      16.558299       450.5742 
 459   0.0000      16.568913       450.8630 
 460   0.0000      16.568924       450.8633 
 461   0.0000      16.667944       453.5578 
 462   0.0000      16.716802       454.8873 
 463   0.0000      16.716808       454.8875 
 464   0.0000      16.823355       457.7868 
 465   0.0000      16.823356       457.7868 
 466   0.0000      16.831694       458.0137 
 467   0.0000      16.897894       459.8151 
 468   0.0000      17.014036       462.9754 
 469   0.0000      17.038502       463.6412 
 470   0.0000      17.038510       463.6414 
 471   0.0000      17.157429       466.8774 
 472   0.0000      17.157432       466.8774 
 473   0.0000      17.320659       471.3191 
 474   0.0000      17.320671       471.3194 
 475   0.0000      17.473622       475.4814 
 476   0.0000      17.522269       476.8052 
 477   0.0000      17.522302       476.8061 
 478   0.0000      17.548153       477.5095 
 479   0.0000      17.786401       483.9926 
 480   0.0000      17.786437       483.9936 
 481   0.0000      17.851898       485.7749 
 482   0.0000      17.926154       487.7955 
 483   0.0000      17.926168       487.7958 
 484   0.0000      17.928387       487.8562 
 485   0.0000      18.175170       494.5715 
 486   0.0000      18.175171       494.5716 
 487   0.0000      18.317968       498.4572 
 488   0.0000      18.318041       498.4592 
 489   0.0000      18.450225       502.0561 
 490   0.0000      19.021402       517.5987 
 491   0.0000      19.021406       517.5988 
 492   0.0000      19.260165       524.0957 
 493   0.0000      19.311812       525.5011 
 494   0.0000      19.311864       525.5025 
 495   0.0000      19.556973       532.1723 
 496   0.0000      19.557042       532.1742 
 497   0.0000      19.800921       538.8105 
 498   0.0000      19.826077       539.4950 
 499   0.0000      20.784242       565.5680 
 500   0.0000      20.784304       565.5697 
 501   0.0000      20.829239       566.7924 
 502   0.0000      20.834295       566.9300 
 503   0.0000      21.188001       576.5548 
 504   0.0000      21.282082       579.1149 
 505   0.0000      21.282108       579.1156 
 506   0.0000      22.045765       599.8958 
 507   0.0000      22.045833       599.8976 
 508   0.0000      23.266008       633.1003 
 509   0.0000      23.266009       633.1003 
 510   0.0000      23.489582       639.1840 
 511   0.0000      23.632707       643.0787 
 512   0.0000      23.632721       643.0790 
 513   0.0000      23.938488       651.3994 
 514   0.0000      23.967532       652.1897 
 515   0.0000      23.967535       652.1898 
 516   0.0000      24.002759       653.1483 
 517   0.0000      24.002760       653.1483 
 518   0.0000      24.372065       663.1976 
 519   0.0000      25.676532       698.6939 
 520   0.0000      25.676543       698.6942 
 521   0.0000      26.072444       709.4673 
 522   0.0000      26.922182       732.5898 
 523   0.0000      28.684193       780.5366 
 524   0.0000      28.855251       785.1913 
 525   0.0000      28.855276       785.1920 
 526   0.0000      30.521203       830.5242 
 527   0.0000      32.235639       877.1763 
 528   0.0000      32.235640       877.1764 
 529   0.0000      34.535310       939.7536 
 530   0.0000      41.529921      1130.0866 
 531   0.0000      41.591359      1131.7584 
 532   0.0000      41.591419      1131.7600 
 533   0.0000      48.383044      1316.5696 
 534   0.0000      48.383059      1316.5700 
 535   0.0000      48.891361      1330.4016 
 536   0.0000      49.253573      1340.2578 
 537   0.0000      49.253611      1340.2589 
 538   0.0000      66.789617      1817.4379 
 539   0.0000      66.789623      1817.4380 
 540   0.0000      67.134387      1826.8195 
 541   0.0000      67.134389      1826.8196 
 542   0.0000      68.650952      1868.0874 
 543   0.0000      90.956434      2475.0504 
 544   0.0000      91.076204      2478.3095 
 545   0.0000      91.076211      2478.3097 
 546   0.0000      91.290425      2484.1388 
 547   0.0000      91.313457      2484.7655 
 548   0.0000      91.313458      2484.7655 
 549   0.0000      92.822641      2525.8325 
 550   0.0000      92.822684      2525.8336 
 551   0.0000      93.004093      2530.7700 
 552   0.0000     106.968057      2910.7488 
 553   0.0000     143.838011      3914.0313 

                 SPIN DOWN ORBITALS
  NO   OCC          E(Eh)            E(eV) 
   0   1.0000     -18.679328      -508.2904 
   1   1.0000     -14.126534      -384.4025 
   2   1.0000      -0.972206       -26.4551 
   3   1.0000      -0.738562       -20.0973 
   4   1.0000      -0.519755       -14.1433 
   5   1.0000      -0.519754       -14.1432 
   6   1.0000      -0.383517       -10.4360 
   7   1.0000      -0.171570        -4.6687 
   8   1.0000      -0.171570        -4.6687 
   9   0.0000      -0.055648        -1.5143 
  10   0.0000      -0.002917        -0.0794 
  11   0.0000      -0.002916        -0.0793 
  12   0.0000       0.008047         0.2190 
  13   0.0000       0.024435         0.6649 
  14   0.0000       0.039449         1.0735 
  15   0.0000       0.039449         1.0735 
  16   0.0000       0.045353         1.2341 
  17   0.0000       0.045354         1.2341 
  18   0.0000       0.051496         1.4013 
  19   0.0000       0.054796         1.4911 
  20   0.0000       0.054797         1.4911 
  21   0.0000       0.063151         1.7184 
  22   0.0000       0.101169         2.7529 
  23   0.0000       0.101169         2.7529 
  24   0.0000       0.102553         2.7906 
  25   0.0000       0.114592         3.1182 
  26   0.0000       0.114593         3.1182 
  27   0.0000       0.117564         3.1991 
  28   0.0000       0.117932         3.2091 
  29   0.0000       0.125088         3.4038 
  30   0.0000       0.125098         3.4041 
  31   0.0000       0.133965         3.6454 
  32   0.0000       0.146942         3.9985 
  33   0.0000       0.150532         4.0962 
  34   0.0000       0.150534         4.0962 
  35   0.0000       0.156048         4.2463 
  36   0.0000       0.156054         4.2464 
  37   0.0000       0.159595         4.3428 
  38   0.0000       0.191034         5.1983 
  39   0.0000       0.191058         5.1989 
  40   0.0000       0.214514         5.8372 
  41   0.0000       0.214996         5.8503 
  42   0.0000       0.215310         5.8589 
  43   0.0000       0.215312         5.8589 
  44   0.0000       0.224467         6.1081 
  45   0.0000       0.224467         6.1081 
  46   0.0000       0.233981         6.3669 
  47   0.0000       0.233981         6.3670 
  48   0.0000       0.234067         6.3693 
  49   0.0000       0.245855         6.6901 
  50   0.0000       0.253837         6.9073 
  51   0.0000       0.253839         6.9073 
  52   0.0000       0.263212         7.1624 
  53   0.0000       0.267570         7.2809 
  54   0.0000       0.268018         7.2931 
  55   0.0000       0.268027         7.2934 
  56   0.0000       0.289155         7.8683 
  57   0.0000       0.296610         8.0712 
  58   0.0000       0.301858         8.2140 
  59   0.0000       0.301882         8.2146 
  60   0.0000       0.307946         8.3796 
  61   0.0000       0.307950         8.3797 
  62   0.0000       0.322503         8.7758 
  63   0.0000       0.333933         9.0868 
  64   0.0000       0.333939         9.0869 
  65   0.0000       0.354226         9.6390 
  66   0.0000       0.354241         9.6394 
  67   0.0000       0.359005         9.7690 
  68   0.0000       0.359008         9.7691 
  69   0.0000       0.365954         9.9581 
  70   0.0000       0.366250         9.9662 
  71   0.0000       0.370684        10.0868 
  72   0.0000       0.370686        10.0869 
  73   0.0000       0.394942        10.7469 
  74   0.0000       0.394968        10.7476 
  75   0.0000       0.418955        11.4003 
  76   0.0000       0.424379        11.5479 
  77   0.0000       0.450416        12.2564 
  78   0.0000       0.450420        12.2565 
  79   0.0000       0.452055        12.3011 
  80   0.0000       0.461244        12.5511 
  81   0.0000       0.464416        12.6374 
  82   0.0000       0.464416        12.6374 
  83   0.0000       0.465478        12.6663 
  84   0.0000       0.469170        12.7668 
  85   0.0000       0.469178        12.7670 
  86   0.0000       0.472733        12.8637 
  87   0.0000       0.472734        12.8637 
  88   0.0000       0.473968        12.8973 
  89   0.0000       0.488903        13.3037 
  90   0.0000       0.488907        13.3038 
  91   0.0000       0.490167        13.3381 
  92   0.0000       0.498157        13.5556 
  93   0.0000       0.500580        13.6215 
  94   0.0000       0.500592        13.6218 
  95   0.0000       0.506496        13.7824 
  96   0.0000       0.513981        13.9861 
  97   0.0000       0.526885        14.3373 
  98   0.0000       0.526896        14.3376 
  99   0.0000       0.553351        15.0574 
 100   0.0000       0.575409        15.6577 
 101   0.0000       0.585505        15.9324 
 102   0.0000       0.588151        16.0044 
 103   0.0000       0.588154        16.0045 
 104   0.0000       0.597383        16.2556 
 105   0.0000       0.597384        16.2557 
 106   0.0000       0.603323        16.4173 
 107   0.0000       0.603333        16.4175 
 108   0.0000       0.606233        16.4964 
 109   0.0000       0.616876        16.7860 
 110   0.0000       0.616888        16.7864 
 111   0.0000       0.656026        17.8514 
 112   0.0000       0.656196        17.8560 
 113   0.0000       0.656210        17.8564 
 114   0.0000       0.665724        18.1153 
 115   0.0000       0.665746        18.1159 
 116   0.0000       0.715876        19.4800 
 117   0.0000       0.715877        19.4800 
 118   0.0000       0.725916        19.7532 
 119   0.0000       0.726799        19.7772 
 120   0.0000       0.736868        20.0512 
 121   0.0000       0.736870        20.0513 
 122   0.0000       0.750233        20.4149 
 123   0.0000       0.754236        20.5238 
 124   0.0000       0.754237        20.5238 
 125   0.0000       0.767282        20.8788 
 126   0.0000       0.767285        20.8789 
 127   0.0000       0.769750        20.9460 
 128   0.0000       0.770887        20.9769 
 129   0.0000       0.770888        20.9769 
 130   0.0000       0.771710        20.9993 
 131   0.0000       0.783269        21.3138 
 132   0.0000       0.786339        21.3974 
 133   0.0000       0.786340        21.3974 
 134   0.0000       0.796431        21.6720 
 135   0.0000       0.820243        22.3199 
 136   0.0000       0.820246        22.3200 
 137   0.0000       0.828304        22.5393 
 138   0.0000       0.838259        22.8102 
 139   0.0000       0.838276        22.8106 
 140   0.0000       0.847284        23.0558 
 141   0.0000       0.850844        23.1526 
 142   0.0000       0.850845        23.1527 
 143   0.0000       0.856328        23.3019 
 144   0.0000       0.858226        23.3535 
 145   0.0000       0.858231        23.3536 
 146   0.0000       0.869083        23.6490 
 147   0.0000       0.872030        23.7291 
 148   0.0000       0.875136        23.8137 
 149   0.0000       0.875139        23.8137 
 150   0.0000       0.881077        23.9753 
 151   0.0000       0.881090        23.9757 
 152   0.0000       0.905654        24.6441 
 153   0.0000       0.905663        24.6443 
 154   0.0000       0.916410        24.9368 
 155   0.0000       0.922619        25.1057 
 156   0.0000       0.956145        26.0180 
 157   0.0000       0.956145        26.0180 
 158   0.0000       0.960725        26.1427 
 159   0.0000       0.965989        26.2859 
 160   0.0000       0.966001        26.2862 
 161   0.0000       0.969303        26.3761 
 162   0.0000       0.992221        26.9997 
 163   0.0000       1.001392        27.2493 
 164   0.0000       1.024724        27.8842 
 165   0.0000       1.034934        28.1620 
 166   0.0000       1.034937        28.1621 
 167   0.0000       1.051677        28.6176 
 168   0.0000       1.051683        28.6178 
 169   0.0000       1.072860        29.1940 
 170   0.0000       1.074091        29.2275 
 171   0.0000       1.074100        29.2277 
 172   0.0000       1.090326        29.6693 
 173   0.0000       1.090338        29.6696 
 174   0.0000       1.115695        30.3596 
 175   0.0000       1.115707        30.3599 
 176   0.0000       1.122262        30.5383 
 177   0.0000       1.130461        30.7614 
 178   0.0000       1.138960        30.9927 
 179   0.0000       1.138965        30.9928 
 180   0.0000       1.153519        31.3888 
 181   0.0000       1.153521        31.3889 
 182   0.0000       1.184181        32.2232 
 183   0.0000       1.184187        32.2234 
 184   0.0000       1.185598        32.2618 
 185   0.0000       1.249677        34.0054 
 186   0.0000       1.298950        35.3462 
 187   0.0000       1.298951        35.3463 
 188   0.0000       1.329237        36.1704 
 189   0.0000       1.333432        36.2845 
 190   0.0000       1.333434        36.2846 
 191   0.0000       1.333874        36.2966 
 192   0.0000       1.339924        36.4612 
 193   0.0000       1.339925        36.4612 
 194   0.0000       1.375429        37.4273 
 195   0.0000       1.375433        37.4274 
 196   0.0000       1.375657        37.4335 
 197   0.0000       1.413514        38.4637 
 198   0.0000       1.413520        38.4638 
 199   0.0000       1.450509        39.4704 
 200   0.0000       1.450529        39.4709 
 201   0.0000       1.512909        41.1683 
 202   0.0000       1.523331        41.4519 
 203   0.0000       1.555697        42.3327 
 204   0.0000       1.555698        42.3327 
 205   0.0000       1.597072        43.4585 
 206   0.0000       1.619499        44.0688 
 207   0.0000       1.619511        44.0691 
 208   0.0000       1.628996        44.3272 
 209   0.0000       1.644737        44.7556 
 210   0.0000       1.685622        45.8681 
 211   0.0000       1.685623        45.8681 
 212   0.0000       1.710799        46.5532 
 213   0.0000       1.748734        47.5855 
 214   0.0000       1.748745        47.5858 
 215   0.0000       1.782929        48.5160 
 216   0.0000       1.782938        48.5162 
 217   0.0000       1.788802        48.6758 
 218   0.0000       1.815205        49.3943 
 219   0.0000       1.815208        49.3943 
 220   0.0000       1.817954        49.4691 
 221   0.0000       1.861851        50.6636 
 222   0.0000       1.861855        50.6637 
 223   0.0000       1.939974        52.7894 
 224   0.0000       1.939991        52.7898 
 225   0.0000       1.948644        53.0253 
 226   0.0000       1.956863        53.2489 
 227   0.0000       2.061308        56.0910 
 228   0.0000       2.061313        56.0912 
 229   0.0000       2.077958        56.5441 
 230   0.0000       2.131251        57.9943 
 231   0.0000       2.131254        57.9944 
 232   0.0000       2.159915        58.7743 
 233   0.0000       2.204352        59.9835 
 234   0.0000       2.273688        61.8702 
 235   0.0000       2.273688        61.8702 
 236   0.0000       2.302009        62.6409 
 237   0.0000       2.360285        64.2266 
 238   0.0000       2.361247        64.2528 
 239   0.0000       2.361256        64.2531 
 240   0.0000       2.522530        68.6415 
 241   0.0000       2.522538        68.6417 
 242   0.0000       2.533720        68.9460 
 243   0.0000       2.542689        69.1901 
 244   0.0000       2.542694        69.1902 
 245   0.0000       2.681249        72.9605 
 246   0.0000       2.681253        72.9606 
 247   0.0000       2.699486        73.4567 
 248   0.0000       2.720142        74.0188 
 249   0.0000       2.787731        75.8580 
 250   0.0000       2.843201        77.3674 
 251   0.0000       2.853661        77.6521 
 252   0.0000       2.853665        77.6522 
 253   0.0000       2.930874        79.7531 
 254   0.0000       2.930883        79.7534 
 255   0.0000       3.084119        83.9231 
 256   0.0000       3.139017        85.4170 
 257   0.0000       3.139024        85.4172 
 258   0.0000       3.221195        87.6532 
 259   0.0000       3.221201        87.6533 
 260   0.0000       3.246694        88.3470 
 261   0.0000       3.267256        88.9066 
 262   0.0000       3.267264        88.9068 
 263   0.0000       3.412458        92.8577 
 264   0.0000       3.445019        93.7437 
 265   0.0000       3.451259        93.9135 
 266   0.0000       3.451267        93.9137 
 267   0.0000       3.512179        95.5712 
 268   0.0000       3.540711        96.3476 
 269   0.0000       3.540718        96.3478 
 270   0.0000       3.621164        98.5369 
 271   0.0000       3.681752       100.1856 
 272   0.0000       3.681757       100.1857 
 273   0.0000       3.736615       101.6785 
 274   0.0000       3.736617       101.6785 
 275   0.0000       3.744960       101.9055 
 276   0.0000       3.781982       102.9130 
 277   0.0000       3.781993       102.9132 
 278   0.0000       3.853079       104.8476 
 279   0.0000       3.940158       107.2171 
 280   0.0000       3.964002       107.8660 
 281   0.0000       3.964009       107.8662 
 282   0.0000       4.077023       110.9414 
 283   0.0000       4.129345       112.3652 
 284   0.0000       4.129359       112.3656 
 285   0.0000       4.197533       114.2207 
 286   0.0000       4.226168       114.9999 
 287   0.0000       4.226174       115.0000 
 288   0.0000       4.240120       115.3795 
 289   0.0000       4.369839       118.9094 
 290   0.0000       4.392809       119.5344 
 291   0.0000       4.392816       119.5346 
 292   0.0000       4.464039       121.4727 
 293   0.0000       4.464045       121.4729 
 294   0.0000       4.523231       123.0834 
 295   0.0000       4.523236       123.0835 
 296   0.0000       4.578273       124.5811 
 297   0.0000       4.578288       124.5815 
 298   0.0000       4.659687       126.7965 
 299   0.0000       4.659700       126.7969 
 300   0.0000       4.660742       126.8252 
 301   0.0000       4.720598       128.4540 
 302   0.0000       4.793135       130.4278 
 303   0.0000       4.793144       130.4281 
 304   0.0000       4.851375       132.0126 
 305   0.0000       4.882281       132.8536 
 306   0.0000       4.927080       134.0727 
 307   0.0000       4.927099       134.0732 
 308   0.0000       5.132057       139.6504 
 309   0.0000       5.196876       141.4142 
 310   0.0000       5.196879       141.4143 
 311   0.0000       5.362936       145.9329 
 312   0.0000       5.362944       145.9331 
 313   0.0000       5.376388       146.2990 
 314   0.0000       5.394044       146.7794 
 315   0.0000       5.402120       146.9992 
 316   0.0000       5.402123       146.9992 
 317   0.0000       5.466908       148.7621 
 318   0.0000       5.563021       151.3775 
 319   0.0000       5.577751       151.7783 
 320   0.0000       5.577757       151.7785 
 321   0.0000       5.630903       153.2247 
 322   0.0000       5.654758       153.8738 
 323   0.0000       5.654782       153.8744 
 324   0.0000       5.705901       155.2655 
 325   0.0000       6.016630       163.7208 
 326   0.0000       6.016633       163.7209 
 327   0.0000       6.065711       165.0564 
 328   0.0000       6.096094       165.8832 
 329   0.0000       6.096101       165.8833 
 330   0.0000       6.104329       166.1072 
 331   0.0000       6.207458       168.9135 
 332   0.0000       6.286116       171.0539 
 333   0.0000       6.286122       171.0541 
 334   0.0000       6.412121       174.4827 
 335   0.0000       6.456263       175.6839 
 336   0.0000       6.456276       175.6842 
 337   0.0000       6.521470       177.4582 
 338   0.0000       6.668408       181.4566 
 339   0.0000       6.668413       181.4568 
 340   0.0000       6.793794       184.8685 
 341   0.0000       6.910488       188.0439 
 342   0.0000       6.910488       188.0439 
 343   0.0000       6.940134       188.8507 
 344   0.0000       7.079008       192.6296 
 345   0.0000       7.079014       192.6298 
 346   0.0000       7.234247       196.8539 
 347   0.0000       7.384758       200.9495 
 348   0.0000       7.384767       200.9497 
 349   0.0000       7.397816       201.3048 
 350   0.0000       7.520716       204.6491 
 351   0.0000       7.520727       204.6494 
 352   0.0000       7.588435       206.4918 
 353   0.0000       7.916341       215.4146 
 354   0.0000       7.916348       215.4148 
 355   0.0000       8.071495       219.6366 
 356   0.0000       8.071507       219.6369 
 357   0.0000       8.100832       220.4349 
 358   0.0000       8.457393       230.1374 
 359   0.0000       8.457400       230.1376 
 360   0.0000       8.550793       232.6789 
 361   0.0000       8.704377       236.8581 
 362   0.0000       8.797069       239.3804 
 363   0.0000       8.797076       239.3806 
 364   0.0000       8.997036       244.8218 
 365   0.0000       9.068131       246.7564 
 366   0.0000       9.068146       246.7568 
 367   0.0000       9.194664       250.1995 
 368   0.0000       9.218774       250.8556 
 369   0.0000       9.218782       250.8558 
 370   0.0000       9.283337       252.6124 
 371   0.0000       9.347386       254.3553 
 372   0.0000       9.347419       254.3562 
 373   0.0000       9.452521       257.2162 
 374   0.0000       9.498766       258.4746 
 375   0.0000       9.498768       258.4746 
 376   0.0000       9.611188       261.5337 
 377   0.0000       9.694409       263.7983 
 378   0.0000       9.694415       263.7985 
 379   0.0000       9.825143       267.3557 
 380   0.0000       9.825150       267.3559 
 381   0.0000       9.946214       270.6503 
 382   0.0000       9.946216       270.6503 
 383   0.0000      10.148955       276.1671 
 384   0.0000      10.148967       276.1674 
 385   0.0000      10.160843       276.4906 
 386   0.0000      10.247011       278.8353 
 387   0.0000      10.302629       280.3488 
 388   0.0000      10.302652       280.3494 
 389   0.0000      10.318754       280.7876 
 390   0.0000      10.830691       294.7181 
 391   0.0000      11.228792       305.5510 
 392   0.0000      11.228811       305.5515 
 393   0.0000      11.311931       307.8133 
 394   0.0000      11.350569       308.8647 
 395   0.0000      11.350570       308.8647 
 396   0.0000      11.448583       311.5318 
 397   0.0000      11.492064       312.7150 
 398   0.0000      11.492065       312.7150 
 399   0.0000      11.603266       315.7409 
 400   0.0000      11.824176       321.7522 
 401   0.0000      11.909501       324.0740 
 402   0.0000      11.909529       324.0748 
 403   0.0000      12.059412       328.1533 
 404   0.0000      12.059420       328.1535 
 405   0.0000      12.144535       330.4696 
 406   0.0000      12.144536       330.4696 
 407   0.0000      12.173451       331.2564 
 408   0.0000      12.173452       331.2565 
 409   0.0000      12.186444       331.6100 
 410   0.0000      12.352347       336.1244 
 411   0.0000      12.367991       336.5501 
 412   0.0000      12.496894       340.0578 
 413   0.0000      12.506190       340.3107 
 414   0.0000      12.506192       340.3108 
 415   0.0000      12.533901       341.0648 
 416   0.0000      12.599538       342.8509 
 417   0.0000      12.599575       342.8519 
 418   0.0000      12.684311       345.1576 
 419   0.0000      12.684316       345.1578 
 420   0.0000      12.739702       346.6649 
 421   0.0000      12.739712       346.6652 
 422   0.0000      12.740571       346.6886 
 423   0.0000      12.801385       348.3434 
 424   0.0000      12.891951       350.8078 
 425   0.0000      12.918260       351.5237 
 426   0.0000      12.918270       351.5240 
 427   0.0000      12.971249       352.9656 
 428   0.0000      12.985314       353.3484 
 429   0.0000      12.985327       353.3487 
 430   0.0000      13.009424       354.0044 
 431   0.0000      13.097958       356.4136 
 432   0.0000      13.135590       357.4376 
 433   0.0000      13.135591       357.4376 
 434   0.0000      13.401886       364.6839 
 435   0.0000      13.401894       364.6841 
 436   0.0000      13.657722       371.6455 
 437   0.0000      13.657729       371.6457 
 438   0.0000      13.929553       379.0424 
 439   0.0000      14.004332       381.0773 
 440   0.0000      14.069352       382.8465 
 441   0.0000      14.181995       385.9117 
 442   0.0000      14.182027       385.9126 
 443   0.0000      14.412686       392.1891 
 444   0.0000      14.455295       393.3486 
 445   0.0000      14.455346       393.3500 
 446   0.0000      15.119019       411.4094 
 447   0.0000      15.243063       414.7848 
 448   0.0000      15.243083       414.7854 
 449   0.0000      15.543051       422.9479 
 450   0.0000      15.635709       425.4693 
 451   0.0000      15.635715       425.4694 
 452   0.0000      15.727918       427.9784 
 453   0.0000      15.923298       433.2950 
 454   0.0000      15.923303       433.2951 
 455   0.0000      15.966741       434.4771 
 456   0.0000      15.966752       434.4774 
 457   0.0000      16.121295       438.6828 
 458   0.0000      16.558299       450.5742 
 459   0.0000      16.568913       450.8630 
 460   0.0000      16.568924       450.8633 
 461   0.0000      16.667944       453.5578 
 462   0.0000      16.716802       454.8873 
 463   0.0000      16.716808       454.8875 
 464   0.0000      16.823355       457.7868 
 465   0.0000      16.823356       457.7868 
 466   0.0000      16.831694       458.0137 
 467   0.0000      16.897894       459.8151 
 468   0.0000      17.014036       462.9754 
 469   0.0000      17.038502       463.6412 
 470   0.0000      17.038510       463.6414 
 471   0.0000      17.157429       466.8774 
 472   0.0000      17.157432       466.8774 
 473   0.0000      17.320659       471.3191 
 474   0.0000      17.320671       471.3194 
 475   0.0000      17.473622       475.4814 
 476   0.0000      17.522269       476.8052 
 477   0.0000      17.522302       476.8061 
 478   0.0000      17.548153       477.5095 
 479   0.0000      17.786401       483.9926 
 480   0.0000      17.786437       483.9936 
 481   0.0000      17.851898       485.7749 
 482   0.0000      17.926154       487.7955 
 483   0.0000      17.926168       487.7958 
 484   0.0000      17.928387       487.8562 
 485   0.0000      18.175170       494.5715 
 486   0.0000      18.175171       494.5716 
 487   0.0000      18.317968       498.4572 
 488   0.0000      18.318041       498.4592 
 489   0.0000      18.450225       502.0561 
 490   0.0000      19.021402       517.5987 
 491   0.0000      19.021406       517.5988 
 492   0.0000      19.260165       524.0957 
 493   0.0000      19.311812       525.5011 
 494   0.0000      19.311864       525.5025 
 495   0.0000      19.556973       532.1723 
 496   0.0000      19.557042       532.1742 
 497   0.0000      19.800921       538.8105 
 498   0.0000      19.826077       539.4950 
 499   0.0000      20.784242       565.5680 
 500   0.0000      20.784304       565.5697 
 501   0.0000      20.829239       566.7924 
 502   0.0000      20.834295       566.9300 
 503   0.0000      21.188001       576.5548 
 504   0.0000      21.282082       579.1149 
 505   0.0000      21.282108       579.1156 
 506   0.0000      22.045765       599.8958 
 507   0.0000      22.045833       599.8976 
 508   0.0000      23.266008       633.1003 
 509   0.0000      23.266009       633.1003 
 510   0.0000      23.489582       639.1840 
 511   0.0000      23.632707       643.0787 
 512   0.0000      23.632721       643.0790 
 513   0.0000      23.938488       651.3994 
 514   0.0000      23.967532       652.1897 
 515   0.0000      23.967535       652.1898 
 516   0.0000      24.002759       653.1483 
 517   0.0000      24.002760       653.1483 
 518   0.0000      24.372065       663.1976 
 519   0.0000      25.676532       698.6939 
 520   0.0000      25.676543       698.6942 
 521   0.0000      26.072444       709.4673 
 522   0.0000      26.922182       732.5898 
 523   0.0000      28.684193       780.5366 
 524   0.0000      28.855251       785.1913 
 525   0.0000      28.855276       785.1920 
 526   0.0000      30.521203       830.5242 
 527   0.0000      32.235639       877.1763 
 528   0.0000      32.235640       877.1764 
 529   0.0000      34.535310       939.7536 
 530   0.0000      41.529921      1130.0866 
 531   0.0000      41.591359      1131.7584 
 532   0.0000      41.591419      1131.7600 
 533   0.0000      48.383044      1316.5696 
 534   0.0000      48.383059      1316.5700 
 535   0.0000      48.891361      1330.4016 
 536   0.0000      49.253573      1340.2578 
 537   0.0000      49.253611      1340.2589 
 538   0.0000      66.789617      1817.4379 
 539   0.0000      66.789623      1817.4380 
 540   0.0000      67.134387      1826.8195 
 541   0.0000      67.134389      1826.8196 
 542   0.0000      68.650952      1868.0874 
 543   0.0000      90.956434      2475.0504 
 544   0.0000      91.076204      2478.3095 
 545   0.0000      91.076211      2478.3097 
 546   0.0000      91.290425      2484.1388 
 547   0.0000      91.313457      2484.7655 
 548   0.0000      91.313458      2484.7655 
 549   0.0000      92.822641      2525.8325 
 550   0.0000      92.822684      2525.8336 
 551   0.0000      93.004093      2530.7700 
 552   0.0000     106.968057      2910.7488 
 553   0.0000     143.838011      3914.0313 

                    ********************************
                    * MULLIKEN POPULATION ANALYSIS *
                    ********************************

--------------------------------------------
MULLIKEN ATOMIC CHARGES AND SPIN POPULATIONS
--------------------------------------------
   0 N :    0.125074    0.000000
   1 H :    0.159414   -0.000000
   2 H :    0.159460   -0.000000
   3 H :    0.159503   -0.000000
   4 O :   -0.603451   -0.000000
Sum of atomic charges         :   -0.0000000
Sum of atomic spin populations:    0.0000000

-----------------------------------------------------
MULLIKEN REDUCED ORBITAL CHARGES AND SPIN POPULATIONS
-----------------------------------------------------
CHARGE
  0 N s       :     3.197503  s :     3.197503
      pz      :     1.037822  p :     3.423855
      px      :     1.193014
      py      :     1.193019
      dz2     :    -0.001346  d :     0.237712
      dxz     :     0.114816
      dyz     :     0.114807
      dx2y2   :     0.004718
      dxy     :     0.004716
      f0      :    -0.000976  f :     0.012629
      f+1     :     0.006437
      f-1     :     0.006437
      f+2     :     0.000282
      f-2     :     0.000282
      f+3     :     0.000167
      f-3     :     0.000000
      g0      :    -0.000107  g :     0.002561
      g+1     :     0.001132
      g-1     :     0.001132
      g+2     :    -0.000008
      g-2     :    -0.000008
      g+3     :     0.000104
      g-3     :     0.000000
      g+4     :     0.000158
      g-4     :     0.000158
      h0      :     0.000141  h :     0.000667
      h+1     :     0.000246
      h-1     :     0.000246
      h+2     :    -0.000009
      h-2     :    -0.000009
      h+3     :     0.000003
      h-3     :    -0.000000
      h+4     :     0.000026
      h-4     :     0.000026
      h+5     :    -0.000001
      h-5     :    -0.000001
  1 H s       :     0.788487  s :     0.788487
      pz      :     0.026438  p :     0.047035
      px      :     0.018074
      py      :     0.002523
      dz2     :     0.005009  d :     0.006267
      dxz     :     0.002032
      dyz     :    -0.000306
      dx2y2   :     0.000900
      dxy     :    -0.001369
      f0      :     0.001428  f :    -0.001098
      f+1     :    -0.001029
      f-1     :    -0.000521
      f+2     :    -0.000076
      f-2     :     0.000129
      f+3     :     0.000099
      f-3     :    -0.001129
      g0      :     0.000126  g :    -0.000104
      g+1     :     0.000027
      g-1     :     0.000021
      g+2     :    -0.000187
      g-2     :     0.000018
      g+3     :    -0.000017
      g-3     :     0.000002
      g+4     :     0.000025
      g-4     :    -0.000120
  2 H s       :     0.788464  s :     0.788464
      pz      :     0.026433  p :     0.047016
      px      :     0.006407
      py      :     0.014177
      dz2     :     0.005010  d :     0.006263
      dxz     :     0.000277
      dyz     :     0.001446
      dx2y2   :    -0.000802
      dxy     :     0.000332
      f0      :     0.001428  f :    -0.001099
      f+1     :    -0.000648
      f-1     :    -0.000901
      f+2     :     0.000078
      f-2     :    -0.000025
      f+3     :     0.000098
      f-3     :    -0.001129
      g0      :     0.000126  g :    -0.000105
      g+1     :     0.000022
      g-1     :     0.000025
      g+2     :    -0.000033
      g-2     :    -0.000136
      g+3     :    -0.000017
      g-3     :     0.000002
      g+4     :    -0.000083
      g-4     :    -0.000011
  3 H s       :     0.788422  s :     0.788422
      pz      :     0.026435  p :     0.047014
      px      :     0.006406
      py      :     0.014173
      dz2     :     0.005011  d :     0.006265
      dxz     :     0.000277
      dyz     :     0.001447
      dx2y2   :    -0.000802
      dxy     :     0.000332
      f0      :     0.001428  f :    -0.001099
      f+1     :    -0.000648
      f-1     :    -0.000902
      f+2     :     0.000077
      f-2     :    -0.000025
      f+3     :     0.000098
      f-3     :    -0.001129
      g0      :     0.000126  g :    -0.000105
      g+1     :     0.000022
      g-1     :     0.000025
      g+2     :    -0.000033
      g-2     :    -0.000136
      g+3     :    -0.000017
      g-3     :     0.000002
      g+4     :    -0.000083
      g-4     :    -0.000011
  4 O s       :     4.002850  s :     4.002850
      pz      :     0.901995  p :     4.558955
      px      :     1.828481
      py      :     1.828479
      dz2     :     0.014370  d :     0.038438
      dxz     :     0.012066
      dyz     :     0.012063
      dx2y2   :    -0.000030
      dxy     :    -0.000030
      f0      :     0.002481  f :     0.003959
      f+1     :     0.001358
      f-1     :     0.001357
      f+2     :    -0.000614
      f-2     :    -0.000614
      f+3     :    -0.000009
      f-3     :     0.000000
      g0      :     0.000484  g :    -0.000574
      g+1     :    -0.000181
      g-1     :    -0.000181
      g+2     :    -0.000340
      g-2     :    -0.000340
      g+3     :    -0.000030
      g-3     :     0.000000
      g+4     :     0.000006
      g-4     :     0.000006
      h0      :     0.000072  h :    -0.000177
      h+1     :    -0.000050
      h-1     :    -0.000050
      h+2     :    -0.000070
      h-2     :    -0.000070
      h+3     :    -0.000016
      h-3     :    -0.000000
      h+4     :     0.000004
      h-4     :     0.000004
      h+5     :    -0.000000
      h-5     :    -0.000000

SPIN
  0 N s       :     0.000000  s :     0.000000
      pz      :    -0.000000  p :    -0.000000
      px      :    -0.000000
      py      :    -0.000000
      dz2     :    -0.000000  d :    -0.000000
      dxz     :    -0.000000
      dyz     :    -0.000000
      dx2y2   :    -0.000000
      dxy     :    -0.000000
      f0      :     0.000000  f :     0.000000
      f+1     :     0.000000
      f-1     :     0.000000
      f+2     :    -0.000000
      f-2     :    -0.000000
      f+3     :     0.000000
      f-3     :     0.000000
      g0      :     0.000000  g :     0.000000
      g+1     :    -0.000000
      g-1     :     0.000000
      g+2     :    -0.000000
      g-2     :    -0.000000
      g+3     :    -0.000000
      g-3     :     0.000000
      g+4     :     0.000000
      g-4     :     0.000000
      h0      :     0.000000  h :    -0.000000
      h+1     :    -0.000000
      h-1     :     0.000000
      h+2     :     0.000000
      h-2     :     0.000000
      h+3     :    -0.000000
      h-3     :     0.000000
      h+4     :     0.000000
      h-4     :     0.000000
      h+5     :     0.000000
      h-5     :     0.000000
  1 H s       :    -0.000000  s :    -0.000000
      pz      :    -0.000000  p :    -0.000000
      px      :    -0.000000
      py      :    -0.000000
      dz2     :    -0.000000  d :    -0.000000
      dxz     :    -0.000000
      dyz     :     0.000000
      dx2y2   :     0.000000
      dxy     :    -0.000000
      f0      :     0.000000  f :    -0.000000
      f+1     :    -0.000000
      f-1     :    -0.000000
      f+2     :    -0.000000
      f-2     :    -0.000000
      f+3     :    -0.000000
      f-3     :    -0.000000
      g0      :     0.000000  g :     0.000000
      g+1     :     0.000000
      g-1     :     0.000000
      g+2     :    -0.000000
      g-2     :    -0.000000
      g+3     :     0.000000
      g-3     :    -0.000000
      g+4     :    -0.000000
      g-4     :    -0.000000
  2 H s       :    -0.000000  s :    -0.000000
      pz      :    -0.000000  p :    -0.000000
      px      :    -0.000000
      py      :    -0.000000
      dz2     :    -0.000000  d :    -0.000000
      dxz     :     0.000000
      dyz     :    -0.000000
      dx2y2   :    -0.000000
      dxy     :    -0.000000
      f0      :     0.000000  f :    -0.000000
      f+1     :    -0.000000
      f-1     :    -0.000000
      f+2     :    -0.000000
      f-2     :    -0.000000
      f+3     :    -0.000000
      f-3     :    -0.000000
      g0      :     0.000000  g :    -0.000000
      g+1     :     0.000000
      g-1     :     0.000000
      g+2     :    -0.000000
      g-2     :    -0.000000
      g+3     :    -0.000000
      g-3     :    -0.000000
      g+4     :    -0.000000
      g-4     :    -0.000000
  3 H s       :    -0.000000  s :    -0.000000
      pz      :    -0.000000  p :    -0.000000
      px      :    -0.000000
      py      :    -0.000000
      dz2     :    -0.000000  d :    -0.000000
      dxz     :     0.000000
      dyz     :    -0.000000
      dx2y2   :    -0.000000
      dxy     :     0.000000
      f0      :     0.000000  f :    -0.000000
      f+1     :    -0.000000
      f-1     :    -0.000000
      f+2     :    -0.000000
      f-2     :    -0.000000
      f+3     :     0.000000
      f-3     :    -0.000000
      g0      :    -0.000000  g :     0.000000
      g+1     :     0.000000
      g-1     :     0.000000
      g+2     :     0.000000
      g-2     :    -0.000000
      g+3     :    -0.000000
      g-3     :    -0.000000
      g+4     :    -0.000000
      g-4     :    -0.000000
  4 O s       :    -0.000000  s :    -0.000000
      pz      :    -0.000000  p :    -0.000000
      px      :     0.000000
      py      :    -0.000000
      dz2     :    -0.000000  d :    -0.000000
      dxz     :    -0.000000
      dyz     :    -0.000000
      dx2y2   :     0.000000
      dxy     :     0.000000
      f0      :    -0.000000  f :    -0.000000
      f+1     :    -0.000000
      f-1     :    -0.000000
      f+2     :    -0.000000
      f-2     :     0.000000
      f+3     :    -0.000000
      f-3     :    -0.000000
      g0      :    -0.000000  g :    -0.000000
      g+1     :    -0.000000
      g-1     :    -0.000000
      g+2     :     0.000000
      g-2     :     0.000000
      g+3     :    -0.000000
      g-3     :     0.000000
      g+4     :    -0.000000
      g-4     :    -0.000000
      h0      :    -0.000000  h :    -0.000000
      h+1     :    -0.000000
      h-1     :    -0.000000
      h+2     :     0.000000
      h-2     :     0.000000
      h+3     :    -0.000000
      h-3     :     0.000000
      h+4     :    -0.000000
      h-4     :    -0.000000
      h+5     :    -0.000000
      h-5     :     0.000000


                     *******************************
                     * LOEWDIN POPULATION ANALYSIS *
                     *******************************

-------------------------------------------
LOEWDIN ATOMIC CHARGES AND SPIN POPULATIONS
-------------------------------------------
   0 N :    0.881046    0.000000
   1 H :   -0.445830   -0.000000
   2 H :   -0.445815   -0.000000
   3 H :   -0.445815   -0.000000
   4 O :    0.456414    0.000000

----------------------------------------------------
LOEWDIN REDUCED ORBITAL CHARGES AND SPIN POPULATIONS
----------------------------------------------------
CHARGE
  0 N s       :     2.547372  s :     2.547372
      pz      :     0.837224  p :     2.539685
      px      :     0.851232
      py      :     0.851229
      dz2     :     0.193828  d :     0.728148
      dxz     :     0.230313
      dyz     :     0.230314
      dx2y2   :     0.036847
      dxy     :     0.036846
      f0      :     0.066416  f :     0.227947
      f+1     :     0.070289
      f-1     :     0.070289
      f+2     :     0.007562
      f-2     :     0.007562
      f+3     :     0.005829
      f-3     :     0.000000
      g0      :     0.017043  g :     0.053791
      g+1     :     0.017558
      g-1     :     0.017558
      g+2     :     0.000071
      g-2     :     0.000071
      g+3     :     0.000504
      g-3     :     0.000000
      g+4     :     0.000493
      g-4     :     0.000493
      h0      :     0.006631  h :     0.022011
      h+1     :     0.007002
      h-1     :     0.007002
      h+2     :     0.000087
      h-2     :     0.000087
      h+3     :     0.000460
      h-3     :     0.000000
      h+4     :     0.000345
      h-4     :     0.000345
      h+5     :     0.000026
      h-5     :     0.000026
  1 H s       :     0.553701  s :     0.553701
      pz      :     0.098830  p :     0.338219
      px      :     0.161000
      py      :     0.078388
      dz2     :     0.064832  d :     0.314003
      dxz     :     0.080764
      dyz     :     0.029528
      dx2y2   :     0.049075
      dxy     :     0.089804
      f0      :     0.025140  f :     0.156175
      f+1     :     0.042870
      f-1     :     0.017381
      f+2     :     0.020901
      f-2     :     0.018010
      f+3     :     0.007365
      f-3     :     0.024508
      g0      :     0.014193  g :     0.083732
      g+1     :     0.019884
      g-1     :     0.005408
      g+2     :     0.014172
      g-2     :     0.016474
      g+3     :     0.003786
      g-3     :     0.005007
      g+4     :     0.000841
      g-4     :     0.003967
  2 H s       :     0.553697  s :     0.553697
      pz      :     0.098828  p :     0.338212
      px      :     0.099038
      py      :     0.140346
      dz2     :     0.064830  d :     0.313999
      dxz     :     0.042336
      dyz     :     0.067955
      dx2y2   :     0.079620
      dxy     :     0.059258
      f0      :     0.025140  f :     0.156174
      f+1     :     0.023753
      f-1     :     0.036498
      f+2     :     0.018733
      f-2     :     0.020178
      f+3     :     0.007365
      f-3     :     0.024508
      g0      :     0.014193  g :     0.083732
      g+1     :     0.009027
      g-1     :     0.016265
      g+2     :     0.015899
      g-2     :     0.014748
      g+3     :     0.003786
      g-3     :     0.005007
      g+4     :     0.003185
      g-4     :     0.001622
  3 H s       :     0.553697  s :     0.553697
      pz      :     0.098828  p :     0.338212
      px      :     0.099038
      py      :     0.140346
      dz2     :     0.064830  d :     0.313999
      dxz     :     0.042336
      dyz     :     0.067955
      dx2y2   :     0.079620
      dxy     :     0.059258
      f0      :     0.025140  f :     0.156174
      f+1     :     0.023753
      f-1     :     0.036498
      f+2     :     0.018733
      f-2     :     0.020178
      f+3     :     0.007365
      f-3     :     0.024508
      g0      :     0.014193  g :     0.083732
      g+1     :     0.009027
      g-1     :     0.016265
      g+2     :     0.015899
      g-2     :     0.014748
      g+3     :     0.003786
      g-3     :     0.005007
      g+4     :     0.003185
      g-4     :     0.001622
  4 O s       :     3.151963  s :     3.151963
      pz      :     0.985326  p :     3.841474
      px      :     1.428075
      py      :     1.428073
      dz2     :     0.115108  d :     0.273327
      dxz     :     0.078193
      dyz     :     0.078193
      dx2y2   :     0.000916
      dxy     :     0.000916
      f0      :     0.038796  f :     0.165368
      f+1     :     0.060960
      f-1     :     0.060961
      f+2     :     0.002286
      f-2     :     0.002286
      f+3     :     0.000080
      f-3     :     0.000000
      g0      :     0.011030  g :     0.079143
      g+1     :     0.030502
      g-1     :     0.030502
      g+2     :     0.003363
      g-2     :     0.003362
      g+3     :     0.000311
      g-3     :     0.000000
      g+4     :     0.000037
      g-4     :     0.000037
      h0      :     0.002356  h :     0.032312
      h+1     :     0.011598
      h-1     :     0.011598
      h+2     :     0.002937
      h-2     :     0.002937
      h+3     :     0.000383
      h-3     :     0.000000
      h+4     :     0.000250
      h-4     :     0.000250
      h+5     :     0.000002
      h-5     :     0.000002

SPIN
  0 N s       :     0.000000  s :     0.000000
      pz      :     0.000000  p :     0.000000
      px      :     0.000000
      py      :    -0.000000
      dz2     :    -0.000000  d :    -0.000000
      dxz     :    -0.000000
      dyz     :    -0.000000
      dx2y2   :    -0.000000
      dxy     :    -0.000000
      f0      :     0.000000  f :    -0.000000
      f+1     :     0.000000
      f-1     :    -0.000000
      f+2     :     0.000000
      f-2     :    -0.000000
      f+3     :    -0.000000
      f-3     :     0.000000
      g0      :     0.000000  g :     0.000000
      g+1     :    -0.000000
      g-1     :    -0.000000
      g+2     :    -0.000000
      g-2     :    -0.000000
      g+3     :    -0.000000
      g-3     :     0.000000
      g+4     :     0.000000
      g-4     :     0.000000
      h0      :     0.000000  h :     0.000000
      h+1     :     0.000000
      h-1     :     0.000000
      h+2     :     0.000000
      h-2     :    -0.000000
      h+3     :    -0.000000
      h-3     :     0.000000
      h+4     :     0.000000
      h-4     :    -0.000000
      h+5     :     0.000000
      h-5     :    -0.000000
  1 H s       :    -0.000000  s :    -0.000000
      pz      :    -0.000000  p :    -0.000000
      px      :    -0.000000
      py      :     0.000000
      dz2     :     0.000000  d :     0.000000
      dxz     :     0.000000
      dyz     :     0.000000
      dx2y2   :     0.000000
      dxy     :    -0.000000
      f0      :    -0.000000  f :    -0.000000
      f+1     :     0.000000
      f-1     :    -0.000000
      f+2     :    -0.000000
      f-2     :    -0.000000
      f+3     :     0.000000
      f-3     :    -0.000000
      g0      :    -0.000000  g :    -0.000000
      g+1     :    -0.000000
      g-1     :    -0.000000
      g+2     :     0.000000
      g-2     :     0.000000
      g+3     :     0.000000
      g-3     :    -0.000000
      g+4     :    -0.000000
      g-4     :     0.000000
  2 H s       :    -0.000000  s :    -0.000000
      pz      :     0.000000  p :    -0.000000
      px      :     0.000000
      py      :    -0.000000
      dz2     :     0.000000  d :     0.000000
      dxz     :     0.000000
      dyz     :     0.000000
      dx2y2   :     0.000000
      dxy     :    -0.000000
      f0      :    -0.000000  f :    -0.000000
      f+1     :    -0.000000
      f-1     :    -0.000000
      f+2     :    -0.000000
      f-2     :    -0.000000
      f+3     :     0.000000
      f-3     :    -0.000000
      g0      :     0.000000  g :    -0.000000
      g+1     :    -0.000000
      g-1     :    -0.000000
      g+2     :     0.000000
      g-2     :     0.000000
      g+3     :     0.000000
      g-3     :     0.000000
      g+4     :    -0.000000
      g-4     :     0.000000
  3 H s       :     0.000000  s :     0.000000
      pz      :    -0.000000  p :    -0.000000
      px      :    -0.000000
      py      :    -0.000000
      dz2     :     0.000000  d :     0.000000
      dxz     :    -0.000000
      dyz     :     0.000000
      dx2y2   :    -0.000000
      dxy     :     0.000000
      f0      :    -0.000000  f :    -0.000000
      f+1     :     0.000000
      f-1     :    -0.000000
      f+2     :    -0.000000
      f-2     :    -0.000000
      f+3     :     0.000000
      f-3     :    -0.000000
      g0      :    -0.000000  g :     0.000000
      g+1     :    -0.000000
      g-1     :    -0.000000
      g+2     :     0.000000
      g-2     :     0.000000
      g+3     :     0.000000
      g-3     :    -0.000000
      g+4     :     0.000000
      g-4     :     0.000000
  4 O s       :     0.000000  s :     0.000000
      pz      :    -0.000000  p :    -0.000000
      px      :     0.000000
      py      :     0.000000
      dz2     :    -0.000000  d :    -0.000000
      dxz     :    -0.000000
      dyz     :     0.000000
      dx2y2   :     0.000000
      dxy     :     0.000000
      f0      :    -0.000000  f :    -0.000000
      f+1     :     0.000000
      f-1     :    -0.000000
      f+2     :    -0.000000
      f-2     :    -0.000000
      f+3     :    -0.000000
      f-3     :     0.000000
      g0      :    -0.000000  g :    -0.000000
      g+1     :     0.000000
      g-1     :    -0.000000
      g+2     :    -0.000000
      g-2     :    -0.000000
      g+3     :     0.000000
      g-3     :    -0.000000
      g+4     :    -0.000000
      g-4     :    -0.000000
      h0      :     0.000000  h :     0.000000
      h+1     :    -0.000000
      h-1     :     0.000000
      h+2     :    -0.000000
      h-2     :    -0.000000
      h+3     :     0.000000
      h-3     :    -0.000000
      h+4     :     0.000000
      h-4     :    -0.000000
      h+5     :    -0.000000
      h-5     :     0.000000


                      *****************************
                      * MAYER POPULATION ANALYSIS *
                      *****************************

  NA   - Mulliken gross atomic population
  ZA   - Total nuclear charge
  QA   - Mulliken gross atomic charge
  VA   - Mayer's total valence
  BVA  - Mayer's bonded valence
  FA   - Mayer's free valence

  ATOM       NA         ZA         QA         VA         BVA        FA
  0 N      6.8749     7.0000     0.1251     4.0241     4.0241    -0.0000
  1 H      0.8406     1.0000     0.1594     0.9838     0.9838    -0.0000
  2 H      0.8405     1.0000     0.1595     0.9837     0.9837    -0.0000
  3 H      0.8405     1.0000     0.1595     0.9837     0.9837    -0.0000
  4 O      8.6035     8.0000    -0.6035     1.4430     1.4430     0.0000

  Mayer bond orders larger than 0.1
B(  0-N ,  1-H ) :   0.9409 B(  0-N ,  2-H ) :   0.9409 B(  0-N ,  3-H ) :   0.9409 
B(  0-N ,  4-O ) :   1.2013 

-------
TIMINGS
-------

Total SCF time: 0 days 1 hours 0 min 14 sec 

Total time                  ....    3614.483 sec
Sum of individual times     ....    3612.690 sec  (100.0%)

Fock matrix formation       ....    3598.211 sec  ( 99.5%)
  XC integration            ....     121.425 sec  (  3.4% of F)
    Basis function eval.    ....       6.424 sec  (  5.3% of XC)
    Density eval.           ....      38.293 sec  ( 31.5% of XC)
    XC-Functional eval.     ....       0.758 sec  (  0.6% of XC)
    XC-Potential eval.      ....      71.499 sec  ( 58.9% of XC)
Diagonalization             ....       4.691 sec  (  0.1%)
Density matrix formation    ....       0.067 sec  (  0.0%)
Population analysis         ....       0.365 sec  (  0.0%)
Initial guess               ....       3.781 sec  (  0.1%)
Orbital Transformation      ....       0.000 sec  (  0.0%)
Orbital Orthonormalization  ....       0.000 sec  (  0.0%)
DIIS solution               ....       3.123 sec  (  0.1%)
Grid generation             ....       2.452 sec  (  0.1%)

-------------------------   --------------------
FINAL SINGLE POINT ENERGY      -131.611618159084
-------------------------   --------------------


                            ***************************************
                            *     ORCA property calculations      *
                            ***************************************

                                    ---------------------
                                    Active property flags
                                    ---------------------
   (+) Dipole Moment
   (+) Polarizability


------------------------------------------------------------------------------
                       ORCA ELECTRIC PROPERTIES CALCULATION
------------------------------------------------------------------------------

Dipole Moment Calculation                       ... on
Quadrupole Moment Calculation                   ... off
Polarizability Calculation                      ... Analytic (CP-SCF)
GBWName                                         ... nh3o_pbe.gbw
Electron density file                           ... nh3o_pbe.scfp.tmp
The origin for moment calculation is the CENTER OF MASS  = (-0.000000,  0.000000  0.158949)

-------------
DIPOLE MOMENT
-------------
                                X             Y             Z
Electronic contribution:     -0.00000       0.00000       0.87519
Nuclear contribution   :     -0.00000       0.00000      -2.86109
                        -----------------------------------------
Total Dipole Moment    :     -0.00000       0.00000      -1.98590
                        -----------------------------------------
Magnitude (a.u.)       :      1.98590
Magnitude (Debye)      :      5.04774



--------------------
Rotational spectrum 
--------------------
 
Rotational constants in cm-1:     6.231743     0.912307     0.912305 
Rotational constants in MHz : 186822.954115 27350.282852 27350.219786 

 Dipole components along the rotational axes: 
x,y,z [a.u.] :    -1.985895    -0.000000    -0.000003 
x,y,z [Debye]:    -5.047744    -0.000000    -0.000009 

 
Transforming and storing MO dipole integrals   ... done

                ... starting polarizability calculation

Opening the Dipole integral file               ... (nh3o_pbe.dmo.tmp) done
Reading Dipole-MO integrals                    ... done
Solving CP-SCF equations                       ... 

           ************************************************************
           *        Program running with 4 parallel MPI-processes     *
           *              working on a common directory               *
           ************************************************************

------------------------------------------------------------------------------
                           ORCA CP-SCF CALCULATION
------------------------------------------------------------------------------

Input orbitals are from        ... nh3o_pbe.gbw
Input Perturbation             ... nh3o_pbe.cpv.tmp
Wavefunction output            ... nh3o_pbe.cpu.tmp
Perturbation mode              ... Real perturbation (singlet)
Solver                         ... POPLE
Max. number of iterations      ... 200
Convergence tolerance          ... 1.000e-06
Integral handling              ... Direct
Number of perturbations        ... 3
Number of operators            ... 2
Orbital ranges used for CP-SCF:
 Operator 0:  Orbitals   0...  8  to   9...553
 Operator 1:  Orbitals   0...  8  to   9...553
DFT calculation                         ... on
Exchange functional (SCF)               ... PBE
Exchange functional (CP-SCF)            ... PBE
   PBE kappa parameter  XKappa (SCF)    ...  0.804000
   PBE kappa parameter  XKappa (CP-SCF) ...  0.804000
   PBE mue parameter   XMuePBE (SCF)    ...  0.219520
   PBE mue parameter   XMuePBE (CP-SCF) ...  0.219520
Correlation functional (SCF)            ... PBE
Correlation functional (CP-SCF)         ... PBE
   PBE beta parameter CBetaPBE (SCF)    ...  0.066725
   PBE beta parameter CBetaPBE (CP-SCF) ...  0.066725
 LDA part of GGA corr.  LDAOpt (SCF)    ... PW91-LDA
 LDA part of GGA corr.  LDAOpt (CP-SCF) ... PW91-LDA
Variables per vector in CP-SCF ... 9810
Number of vectors sought       ... 3
Recalculating density on grid  ... done
Calculating the xc-kernel      ... done
     CP-SCF ITERATION   0: 
     CP-SCF ITERATION   1:      0.382177431152
     CP-SCF ITERATION   2:      0.033174153366
     CP-SCF ITERATION   3:      0.001549658756
     CP-SCF ITERATION   4:      0.000044085596
     CP-SCF ITERATION   5:      0.000000747520
done
Reading CP-SCF coefficients                    ... done
Doing the polarizability tensor   ... done
Cleaning up                                    ... done

-------------------------
THE POLARIZABILITY TENSOR
-------------------------

The raw cartesian tensor (atomic units):
   20.73584      0.00000     -0.00051  
    0.00000     20.73607      0.00000  
   -0.00051      0.00000     30.13814  
diagonalized tensor: 
   20.73584     20.73607     30.13814  

   -1.00000      0.00017     -0.00005  
    0.00017      1.00000      0.00000  
   -0.00005     -0.00000      1.00000  

Isotropic polarizability :  23.87002


Timings for individual modules:

Sum of individual times         ...     6023.461 sec (= 100.391 min)
GTO integral calculation        ...        4.303 sec (=   0.072 min)   0.1 %
SCF iterations                  ...     3615.660 sec (=  60.261 min)  60.0 %
Solution of CP-SCF eqns.        ...     2403.498 sec (=  40.058 min)  39.9 %
                             ****ORCA TERMINATED NORMALLY****
TOTAL RUN TIME: 0 days 1 hours 40 minutes 28 seconds 984 msec
