
                                 *****************
                                 * O   R   C   A *
                                 *****************

           --- An Ab Initio, DFT and Semiempirical electronic structure package ---

                  #######################################################
                  #                        -***-                        #
                  #          Department of theory and spectroscopy      #
                  #               Directorship: Frank Neese             #
                  #        Max Planck Institute fuer Kohlenforschung    #
                  #                Kaiser Wilhelm Platz 1               #
                  #                 D-45470 Muelheim/Ruhr               #
                  #                      Germany                        #
                  #                                                     #
                  #                  All rights reserved                #
                  #                        -***-                        #
                  #######################################################


                         Program Version 4.1.2  - RELEASE  -


 With contributions from (in alphabetic order):
   Daniel Aravena         : Magnetic Properties
   Michael Atanasov       : Ab Initio Ligand Field Theory
   Alexander A. Auer      : GIAO ZORA
   Ute Becker             : Parallelization
   Giovanni Bistoni       : ED, Open-shell LED
   Martin Brehm           : Molecular dynamics
   Dmytro Bykov           : SCF Hessian
   Vijay G. Chilkuri      : MRCI spin determinant printing
   Dipayan Datta          : RHF DLPNO-CCSD density
   Achintya Kumar Dutta   : EOM-CC, STEOM-CC
   Dmitry Ganyushin       : Spin-Orbit,Spin-Spin,Magnetic field MRCI
   Miquel Garcia          : C-PCM Hessian
   Yang Guo               : DLPNO-NEVPT2, CIM, IAO-localization
   Andreas Hansen         : Spin unrestricted coupled pair/coupled cluster methods
   Benjamin Helmich-Paris : CASSCF linear response (MC-RPA)
   Lee Huntington         : MR-EOM, pCC
   Robert Izsak           : Overlap fitted RIJCOSX, COSX-SCS-MP3, EOM
   Christian Kollmar      : KDIIS, OOCD, Brueckner-CCSD(T), CCSD density
   Simone Kossmann        : Meta GGA functionals, TD-DFT gradient, OOMP2, MP2 Hessian
   Martin Krupicka        : AUTO-CI
   Lucas Lang             : DCDCAS
   Dagmar Lenk            : GEPOL surface, SMD
   Dimitrios Liakos       : Extrapolation schemes; parallel MDCI
   Dimitrios Manganas     : ROCIS; embedding schemes
   Dimitrios Pantazis     : SARC Basis sets
   Taras Petrenko         : DFT Hessian,TD-DFT gradient, ASA, ECA, R-Raman, ABS, FL, XAS/XES, NRVS
   Peter Pinski           : DLPNO-MP2, DLPNO-MP2 Gradient
   Christoph Reimann      : Effective Core Potentials
   Marius Retegan         : Local ZFS, SOC
   Christoph Riplinger    : Optimizer, TS searches, QM/MM, DLPNO-CCSD(T), (RO)-DLPNO pert. Triples
   Tobias Risthaus        : Range-separated hybrids, TD-DFT gradient, RPA, STAB
   Michael Roemelt        : Restricted open shell CIS
   Masaaki Saitow         : Open-shell DLPNO
   Barbara Sandhoefer     : DKH picture change effects
   Avijit Sen             : IP-ROCIS
   Kantharuban Sivalingam : CASSCF convergence, NEVPT2, FIC-MRCI
   Bernardo de Souza      : ESD, SOC TD-DFT
   Georgi Stoychev        : AutoAux, RI-MP2 NMR
   Willem Van den Heuvel  : Paramagnetic NMR
   Boris Wezisla          : Elementary symmetry handling
   Frank Wennmohs         : Technical directorship


 We gratefully acknowledge several colleagues who have allowed us to
 interface, adapt or use parts of their codes:
   Stefan Grimme, W. Hujo, H. Kruse,             : VdW corrections, initial TS optimization,
                  C. Bannwarth                     DFT functionals, gCP, sTDA/sTD-DF
   Ed Valeev                                     : LibInt (2-el integral package), F12 methods
   Garnet Chan, S. Sharma, J. Yang, R. Olivares  : DMRG
   Ulf Ekstrom                                   : XCFun DFT Library
   Mihaly Kallay                                 : mrcc  (arbitrary order and MRCC methods)
   Andreas Klamt, Michael Diedenhofen            : otool_cosmo (COSMO solvation model)
   Jiri Pittner, Ondrej Demel                    : Mk-CCSD
   Frank Weinhold                                : gennbo (NPA and NBO analysis)
   Christopher J. Cramer and Donald G. Truhlar   : smd solvation model
   Lars Goerigk                                  : TD-DFT with DH, B97 family of functionals
   V. Asgeirsson, H. Jonsson                     : NEB implementation
   FAccTs GmbH                                   : IRC, NEB, NEB-TS, Multilevel


 Your calculation uses the libint2 library for the computation of 2-el integrals
 For citations please refer to: http://libint.valeyev.net

 This ORCA versions uses:
   CBLAS   interface :  Fast vector & matrix operations
   LAPACKE interface :  Fast linear algebra routines
   SCALAPACK package :  Parallel linear algebra routines


----- Orbital basis set information -----
Your calculation utilizes the basis: aug-pc-4
   H, C-F              : F. Jensen, J. Chem. Phys. 115, 9113 (2001).
                         F. Jensen, J. Chem. Phys. 116, 7372 (2002).
                         F. Jensen, J. Chem. Phys. 117, 9234 (2002).
   Si-Cl               : F. Jensen, T. Helgaker, J. Chem. Phys. 121, 3463 (2004).
   He-B, Ne-Mg, Al, Ar : F. Jensen, J. Phys. Chem. A 111, 11198 (2007).
   K, Ca, Ga-Kr        : F. Jensen, J. Chem. Phys. 136, 094110 (2012).
   Sc-Zn               : F. Jensen, J. Chem. Phys. 138, 014107 (2013).

================================================================================
                                        WARNINGS
                       Please study these warnings very carefully!
================================================================================


INFO   : the flag for use of LIBINT has been found!

================================================================================
                                       INPUT FILE
================================================================================
NAME = nh_pbe.inp
|  1> !uks pbe nori aug-pc-4 grid7 nofinalgrid verytightscf
|  2> 
|  3> %maxcore 1500
|  4> 
|  5> %pal nprocs 1 end
|  6> 
|  7> %scf
|  8> 	maxiter 200
|  9> end
| 10> %elprop
| 11> 	dipole true
| 12> 	 polar 1
| 13> 	 maxiter 200
| 14> end
| 15> 
| 16> * xyz 0 3
| 17> N 0 0 0
| 18> H 0 0 1.0362
| 19> *
| 20> 
| 21>                          ****END OF INPUT****
================================================================================

                       ****************************
                       * Single Point Calculation *
                       ****************************

---------------------------------
CARTESIAN COORDINATES (ANGSTROEM)
---------------------------------
  N      0.000000    0.000000    0.000000
  H      0.000000    0.000000    1.036200

----------------------------
CARTESIAN COORDINATES (A.U.)
----------------------------
  NO LB      ZA    FRAG     MASS         X           Y           Z
   0 N     7.0000    0    14.007    0.000000    0.000000    0.000000
   1 H     1.0000    0     1.008    0.000000    0.000000    1.958134

--------------------------------
INTERNAL COORDINATES (ANGSTROEM)
--------------------------------
 N      0   0   0     0.000000000000     0.00000000     0.00000000
 H      1   0   0     1.036200000000     0.00000000     0.00000000

---------------------------
INTERNAL COORDINATES (A.U.)
---------------------------
 N      0   0   0     0.000000000000     0.00000000     0.00000000
 H      1   0   0     1.958134219969     0.00000000     0.00000000

---------------------
BASIS SET INFORMATION
---------------------
There are 2 groups of distinct atoms

 Group   1 Type N   : 27s12p7d4f3g2h contracted to 9s8p7d4f3g2h pattern {1191111111/51111111/1111111/1111/111/11}
 Group   2 Type H   : 12s7p4d3f2g contracted to 8s7p4d3f2g pattern {51111111/1111111/1111/111/11}

Atom   0N    basis set group =>   1
Atom   1H    basis set group =>   2
------------------------------------------------------------------------------
                           ORCA GTO INTEGRAL CALCULATION
------------------------------------------------------------------------------

                         BASIS SET STATISTICS AND STARTUP INFO

 # of primitive gaussian shells          ...   83
 # of primitive gaussian functions       ...  267
 # of contracted shells                  ...   57
 # of contracted basis functions         ...  233
 Highest angular momentum                ...    5
 Maximum contraction depth               ...   11
 Integral package used                   ... LIBINT
 Integral threshhold            Thresh   ...  1.000e-12
 Primitive cut-off              TCut     ...  1.000e-14


------------------------------ INTEGRAL EVALUATION ----------------------------


 * One electron integrals 
 Pre-screening matrix                    ... done
 Shell pair data                         ... done (   0.000 sec)

-------------------------------------------------------------------------------
                                 ORCA SCF
-------------------------------------------------------------------------------

------------
SCF SETTINGS
------------
Hamiltonian:
 Density Functional     Method          .... DFT(GTOs)
 Exchange Functional    Exchange        .... PBE
   PBE kappa parameter   XKappa         ....  0.804000
   PBE mue parameter    XMuePBE         ....  0.219520
 Correlation Functional Correlation     .... PBE
   PBE beta parameter  CBetaPBE         ....  0.066725
 LDA part of GGA corr.  LDAOpt          .... PW91-LDA
 Gradients option       PostSCFGGA      .... off
   Density functional embedding theory  .... OFF
   NL short-range parameter             ....  6.400000


General Settings:
 Integral files         IntName         .... nh_pbe
 Hartree-Fock type      HFTyp           .... UHF
 Total Charge           Charge          ....    0
 Multiplicity           Mult            ....    3
 Number of Electrons    NEL             ....    8
 Basis Dimension        Dim             ....  233
 Nuclear Repulsion      ENuc            ....      3.5748315558 Eh

Convergence Acceleration:
 DIIS                   CNVDIIS         .... on
   Start iteration      DIISMaxIt       ....    12
   Startup error        DIISStart       ....  0.200000
   # of expansion vecs  DIISMaxEq       ....     5
   Bias factor          DIISBfac        ....   1.050
   Max. coefficient     DIISMaxC        ....  10.000
 Newton-Raphson         CNVNR           .... off
 SOSCF                  CNVSOSCF        .... off
 Level Shifting         CNVShift        .... on
   Level shift para.    LevelShift      ....    0.2500
   Turn off err/grad.   ShiftErr        ....    0.0010
 Zerner damping         CNVZerner       .... off
 Static damping         CNVDamp         .... on
   Fraction old density DampFac         ....    0.7000
   Max. Damping (<1)    DampMax         ....    0.9800
   Min. Damping (>=0)   DampMin         ....    0.0000
   Turn off err/grad.   DampErr         ....    0.1000
 Fernandez-Rico         CNVRico         .... off

SCF Procedure:
 Maximum # iterations   MaxIter         ....   200
 SCF integral mode      SCFMode         .... Direct
   Integral package                     .... LIBINT
 Reset frequency        DirectResetFreq ....    20
 Integral Threshold     Thresh          ....  1.000e-12 Eh
 Primitive CutOff       TCut            ....  1.000e-14 Eh

Convergence Tolerance:
 Convergence Check Mode ConvCheckMode   .... Total+1el-Energy
 Convergence forced     ConvForced      .... 0
 Energy Change          TolE            ....  1.000e-09 Eh
 1-El. energy change                    ....  1.000e-06 Eh
 DIIS Error             TolErr          ....  1.000e-08


Diagonalization of the overlap matrix:
Smallest eigenvalue                        ... 5.023e-06
Time for diagonalization                   ...    0.085 sec
Threshold for overlap eigenvalues          ... 1.000e-08
Number of eigenvalues below threshold      ... 0
Time for construction of square roots      ...    0.009 sec
Total time needed                          ...    0.094 sec

-------------------
DFT GRID GENERATION
-------------------

General Integration Accuracy     IntAcc      ...  5.670
Radial Grid Type                 RadialGrid  ... Gauss-Chebyshev
Angular Grid (max. acc.)         AngularGrid ... Lebedev-770
Angular grid pruning method      GridPruning ... 3 (G Style)
Weight generation scheme         WeightScheme... Becke
Basis function cutoff            BFCut       ...    1.0000e-12
Integration weight cutoff        WCut        ...    1.0000e-14
Grids for H and He will be reduced by one unit

# of grid points (after initial pruning)     ...  42870 (   0.0 sec)
# of grid points (after weights+screening)   ...  42699 (   0.0 sec)
nearest neighbour list constructed           ...    0.0 sec
Grid point re-assignment to atoms done       ...    0.0 sec
Grid point division into batches done        ...    0.8 sec
Reduced shell lists constructed in    1.1 sec

Total number of grid points                  ...    42699
Total number of batches                      ...      669
Average number of points per batch           ...       63
Average number of grid points per atom       ...    21350
Average number of shells per batch           ...    45.67 (80.12%)
Average number of basis functions per batch  ...   191.10 (82.02%)
Average number of large shells per batch     ...    42.18 (92.36%)
Average number of large basis fcns per batch ...   177.41 (92.84%)
Maximum spatial batch extension              ...  16.66, 16.66, 17.84 au
Average spatial batch extension              ...   2.37,  2.36,  2.13 au

Time for grid setup =    1.178 sec

------------------------------
INITIAL GUESS: MODEL POTENTIAL
------------------------------
Loading Hartree-Fock densities                     ... done
Calculating cut-offs                               ... done
Setting up the integral package                    ... done
Initializing the effective Hamiltonian             ... done
Starting the Coulomb interaction                   ... done (   0.0 sec)
Reading the grid                                   ... done
Mapping shells                                     ... done
Starting the XC term evaluation                    ... done (   1.4 sec)
  promolecular density results
     # of electrons  =      7.999510380
     EX              =     -6.698743966
     EC              =     -0.233122944
     EX+EC           =     -6.931866910
Transforming the Hamiltonian                       ... done (   0.0 sec)
Diagonalizing the Hamiltonian                      ... done (   0.0 sec)
Back transforming the eigenvectors                 ... done (   0.0 sec)
Now organizing SCF variables                       ... done
                      ------------------
                      INITIAL GUESS DONE (   2.7 sec)
                      ------------------
--------------
SCF ITERATIONS
--------------
ITER       Energy         Delta-E        Max-DP      RMS-DP      [F,P]     Damp
               ***  Starting incremental Fock matrix formation  ***
  0    -55.1670634405   0.000000000000 0.01166962  0.00009332  0.0805164 0.7000
  1    -55.1707794150  -0.003715974505 0.00891811  0.00007501  0.0438884 0.7000
                               ***Turning on DIIS***
  2    -55.1726818366  -0.001902421617 0.01853332  0.00015913  0.0183663 0.0000
  3    -55.1762761892  -0.003594352580 0.00273424  0.00003825  0.0212359 0.0000
  4    -55.1768103408  -0.000534151675 0.00116890  0.00001514  0.0026640 0.0000
  5    -55.1768383885  -0.000028047660 0.00059129  0.00000667  0.0008118 0.0000
  6    -55.1768429866  -0.000004598132 0.00013386  0.00000149  0.0002905 0.0000
  7    -55.1768431928  -0.000000206139 0.00001409  0.00000020  0.0000446 0.0000
  8    -55.1768432059  -0.000000013086 0.00000586  0.00000008  0.0000055 0.0000
  9    -55.1768432074  -0.000000001539 0.00000148  0.00000002  0.0000013 0.0000
 10    -55.1768432075  -0.000000000078 0.00000058  0.00000001  0.0000002 0.0000
                 **** Energy Check signals convergence ****

               *****************************************************
               *                     SUCCESS                       *
               *           SCF CONVERGED AFTER  11 CYCLES          *
               *****************************************************


----------------
TOTAL SCF ENERGY
----------------

Total Energy       :          -55.17684321 Eh           -1501.43824 eV

Components:
Nuclear Repulsion  :            3.57483156 Eh              97.27611 eV
Electronic Energy  :          -58.75167476 Eh           -1598.71435 eV
One Electron Energy:          -81.61682926 Eh           -2220.90683 eV
Two Electron Energy:           22.86515450 Eh             622.19249 eV

Virial components:
Potential Energy   :         -110.18382546 Eh           -2998.25432 eV
Kinetic Energy     :           55.00698225 Eh            1496.81608 eV
Virial Ratio       :            2.00308799


DFT components:
N(Alpha)           :        4.999999993965 electrons
N(Beta)            :        2.999999993261 electrons
N(Total)           :        7.999999987226 electrons
E(X)               :       -6.879952501297 Eh       
E(C)               :       -0.224557039609 Eh       
E(XC)              :       -7.104509540906 Eh       
DFET-embed. en.    :        0.000000000000 Eh       

---------------
SCF CONVERGENCE
---------------

  Last Energy change         ...   -8.2423e-13  Tolerance :   1.0000e-09
  Last MAX-Density change    ...    1.5683e-06  Tolerance :   1.0000e-08
  Last RMS-Density change    ...    1.5178e-08  Tolerance :   1.0000e-09
  Last DIIS Error            ...    1.0897e-07  Tolerance :   1.0000e-08

             **** THE GBW FILE WAS UPDATED (nh_pbe.gbw) ****
             **** DENSITY FILE WAS UPDATED (nh_pbe.scfp.tmp) ****
             **** ENERGY FILE WAS UPDATED (nh_pbe.en.tmp) ****
----------------------
UHF SPIN CONTAMINATION
----------------------

Warning: in a DFT calculation there is little theoretical justification to 
         calculate <S**2> as in Hartree-Fock theory. We will do it anyways
         but you should keep in mind that the values have only limited relevance

Expectation value of <S**2>     :     2.005073
Ideal value S*(S+1) for S=1.0   :     2.000000
Deviation                       :     0.005073

----------------
ORBITAL ENERGIES
----------------
                 SPIN UP ORBITALS
  NO   OCC          E(Eh)            E(eV) 
   0   1.0000     -14.067727      -382.8023 
   1   1.0000      -0.768647       -20.9159 
   2   1.0000      -0.357884        -9.7385 
   3   1.0000      -0.291150        -7.9226 
   4   1.0000      -0.291150        -7.9226 
   5   0.0000      -0.024496        -0.6666 
   6   0.0000       0.025604         0.6967 
   7   0.0000       0.025604         0.6967 
   8   0.0000       0.025694         0.6992 
   9   0.0000       0.044020         1.1979 
  10   0.0000       0.068046         1.8516 
  11   0.0000       0.084442         2.2978 
  12   0.0000       0.084442         2.2978 
  13   0.0000       0.123057         3.3486 
  14   0.0000       0.130666         3.5556 
  15   0.0000       0.130666         3.5556 
  16   0.0000       0.135507         3.6873 
  17   0.0000       0.135507         3.6873 
  18   0.0000       0.159586         4.3426 
  19   0.0000       0.178627         4.8607 
  20   0.0000       0.193430         5.2635 
  21   0.0000       0.193718         5.2713 
  22   0.0000       0.193718         5.2713 
  23   0.0000       0.200231         5.4486 
  24   0.0000       0.200231         5.4486 
  25   0.0000       0.231342         6.2951 
  26   0.0000       0.231342         6.2951 
  27   0.0000       0.279497         7.6055 
  28   0.0000       0.279497         7.6055 
  29   0.0000       0.317528         8.6404 
  30   0.0000       0.338861         9.2209 
  31   0.0000       0.338861         9.2209 
  32   0.0000       0.339635         9.2419 
  33   0.0000       0.345964         9.4142 
  34   0.0000       0.345964         9.4142 
  35   0.0000       0.373701        10.1689 
  36   0.0000       0.373701        10.1689 
  37   0.0000       0.387194        10.5361 
  38   0.0000       0.404667        11.0115 
  39   0.0000       0.404667        11.0115 
  40   0.0000       0.432561        11.7706 
  41   0.0000       0.456441        12.4204 
  42   0.0000       0.458843        12.4857 
  43   0.0000       0.458843        12.4857 
  44   0.0000       0.465236        12.6597 
  45   0.0000       0.465236        12.6597 
  46   0.0000       0.475780        12.9466 
  47   0.0000       0.475780        12.9466 
  48   0.0000       0.504798        13.7363 
  49   0.0000       0.504798        13.7363 
  50   0.0000       0.545761        14.8509 
  51   0.0000       0.545761        14.8509 
  52   0.0000       0.591762        16.1027 
  53   0.0000       0.597368        16.2552 
  54   0.0000       0.597368        16.2552 
  55   0.0000       0.601055        16.3555 
  56   0.0000       0.601055        16.3555 
  57   0.0000       0.611653        16.6439 
  58   0.0000       0.611653        16.6439 
  59   0.0000       0.639188        17.3932 
  60   0.0000       0.639188        17.3932 
  61   0.0000       0.681172        18.5356 
  62   0.0000       0.727839        19.8055 
  63   0.0000       0.727839        19.8055 
  64   0.0000       0.732413        19.9300 
  65   0.0000       0.732413        19.9300 
  66   0.0000       0.741950        20.1895 
  67   0.0000       0.746374        20.3099 
  68   0.0000       0.746374        20.3099 
  69   0.0000       0.784543        21.3485 
  70   0.0000       0.803277        21.8583 
  71   0.0000       0.803277        21.8583 
  72   0.0000       0.847002        23.0481 
  73   0.0000       0.847002        23.0481 
  74   0.0000       0.888890        24.1879 
  75   0.0000       0.892036        24.2735 
  76   0.0000       0.892036        24.2735 
  77   0.0000       0.909116        24.7383 
  78   0.0000       0.909116        24.7383 
  79   0.0000       0.910790        24.7839 
  80   0.0000       0.910790        24.7839 
  81   0.0000       0.922228        25.0951 
  82   0.0000       0.957816        26.0635 
  83   0.0000       0.957816        26.0635 
  84   0.0000       1.070761        29.1369 
  85   0.0000       1.149495        31.2793 
  86   0.0000       1.149495        31.2793 
  87   0.0000       1.193526        32.4775 
  88   0.0000       1.193526        32.4775 
  89   0.0000       1.307468        35.5780 
  90   0.0000       1.307468        35.5780 
  91   0.0000       1.353930        36.8423 
  92   0.0000       1.383207        37.6390 
  93   0.0000       1.383207        37.6390 
  94   0.0000       1.530277        41.6410 
  95   0.0000       1.530277        41.6410 
  96   0.0000       1.541780        41.9540 
  97   0.0000       1.589473        43.2518 
  98   0.0000       1.589473        43.2518 
  99   0.0000       1.626905        44.2703 
 100   0.0000       1.784032        48.5460 
 101   0.0000       1.784032        48.5460 
 102   0.0000       1.880275        51.1649 
 103   0.0000       1.953280        53.1515 
 104   0.0000       1.953280        53.1515 
 105   0.0000       2.290542        62.3288 
 106   0.0000       2.392318        65.0983 
 107   0.0000       2.392318        65.0983 
 108   0.0000       2.537165        69.0398 
 109   0.0000       2.696015        73.3623 
 110   0.0000       2.808930        76.4349 
 111   0.0000       2.808930        76.4349 
 112   0.0000       2.868878        78.0662 
 113   0.0000       2.868878        78.0662 
 114   0.0000       3.021859        82.2290 
 115   0.0000       3.021859        82.2290 
 116   0.0000       3.127697        85.1090 
 117   0.0000       3.400671        92.5370 
 118   0.0000       3.400671        92.5370 
 119   0.0000       3.468163        94.3735 
 120   0.0000       3.468163        94.3735 
 121   0.0000       3.532508        96.1244 
 122   0.0000       3.601572        98.0038 
 123   0.0000       3.601572        98.0038 
 124   0.0000       3.779898       102.8563 
 125   0.0000       3.779898       102.8563 
 126   0.0000       3.911404       106.4347 
 127   0.0000       4.123007       112.1927 
 128   0.0000       4.123007       112.1927 
 129   0.0000       4.281363       116.5018 
 130   0.0000       4.365627       118.7947 
 131   0.0000       4.365627       118.7947 
 132   0.0000       4.741692       129.0280 
 133   0.0000       4.741692       129.0280 
 134   0.0000       4.896617       133.2437 
 135   0.0000       4.896617       133.2437 
 136   0.0000       4.900964       133.3620 
 137   0.0000       4.900964       133.3620 
 138   0.0000       5.042004       137.1999 
 139   0.0000       5.201158       141.5307 
 140   0.0000       5.201158       141.5307 
 141   0.0000       5.581510       151.8806 
 142   0.0000       5.666446       154.1918 
 143   0.0000       5.666446       154.1918 
 144   0.0000       5.925630       161.2446 
 145   0.0000       6.139398       167.0615 
 146   0.0000       6.139398       167.0615 
 147   0.0000       6.228034       169.4734 
 148   0.0000       6.370842       173.3594 
 149   0.0000       6.370842       173.3594 
 150   0.0000       6.742755       183.4797 
 151   0.0000       6.742755       183.4797 
 152   0.0000       7.401784       201.4128 
 153   0.0000       7.401784       201.4128 
 154   0.0000       7.631921       207.6751 
 155   0.0000       8.167225       222.2415 
 156   0.0000       8.265674       224.9204 
 157   0.0000       8.265674       224.9204 
 158   0.0000       8.686243       236.3647 
 159   0.0000       8.686243       236.3647 
 160   0.0000       8.855733       240.9767 
 161   0.0000       8.855733       240.9767 
 162   0.0000       9.247429       251.6353 
 163   0.0000       9.518054       258.9994 
 164   0.0000       9.518054       258.9994 
 165   0.0000       9.812970       267.0245 
 166   0.0000      10.995484       299.2023 
 167   0.0000      10.995484       299.2023 
 168   0.0000      11.111210       302.3514 
 169   0.0000      11.111210       302.3514 
 170   0.0000      11.270141       306.6761 
 171   0.0000      11.285069       307.0823 
 172   0.0000      11.285069       307.0823 
 173   0.0000      11.287386       307.1454 
 174   0.0000      11.287386       307.1454 
 175   0.0000      11.287657       307.1528 
 176   0.0000      11.287657       307.1528 
 177   0.0000      11.329201       308.2832 
 178   0.0000      11.329201       308.2832 
 179   0.0000      11.463166       311.9286 
 180   0.0000      11.463166       311.9286 
 181   0.0000      11.646790       316.9253 
 182   0.0000      12.302315       334.7630 
 183   0.0000      12.331510       335.5574 
 184   0.0000      12.331510       335.5574 
 185   0.0000      12.611276       343.1703 
 186   0.0000      12.611276       343.1703 
 187   0.0000      13.588854       369.7715 
 188   0.0000      13.588854       369.7715 
 189   0.0000      13.963888       379.9767 
 190   0.0000      14.115832       384.1113 
 191   0.0000      14.115832       384.1113 
 192   0.0000      14.245348       387.6356 
 193   0.0000      14.245348       387.6356 
 194   0.0000      14.791896       402.5080 
 195   0.0000      14.791896       402.5080 
 196   0.0000      15.180615       413.0855 
 197   0.0000      15.180615       413.0855 
 198   0.0000      15.393806       418.8868 
 199   0.0000      15.988235       435.0620 
 200   0.0000      15.988235       435.0620 
 201   0.0000      16.410005       446.5389 
 202   0.0000      16.670165       453.6182 
 203   0.0000      16.670165       453.6182 
 204   0.0000      16.705737       454.5862 
 205   0.0000      16.705737       454.5862 
 206   0.0000      17.025427       463.2854 
 207   0.0000      17.025427       463.2854 
 208   0.0000      17.244345       469.2425 
 209   0.0000      17.244345       469.2425 
 210   0.0000      17.771633       483.5907 
 211   0.0000      18.971866       516.2507 
 212   0.0000      18.971866       516.2507 
 213   0.0000      20.345000       553.6156 
 214   0.0000      20.345000       553.6156 
 215   0.0000      20.823531       566.6371 
 216   0.0000      23.182602       630.8307 
 217   0.0000      23.338839       635.0821 
 218   0.0000      23.338839       635.0821 
 219   0.0000      25.514835       694.2940 
 220   0.0000      25.808434       702.2832 
 221   0.0000      25.808434       702.2832 
 222   0.0000      27.630473       751.8634 
 223   0.0000      41.018264      1116.1637 
 224   0.0000      47.517749      1293.0237 
 225   0.0000      47.517749      1293.0237 
 226   0.0000      47.851144      1302.0958 
 227   0.0000      47.851144      1302.0958 
 228   0.0000      48.593708      1322.3020 
 229   0.0000      90.911390      2473.8247 
 230   0.0000      90.911390      2473.8247 
 231   0.0000      92.594253      2519.6177 
 232   0.0000     103.584795      2818.6856 

                 SPIN DOWN ORBITALS
  NO   OCC          E(Eh)            E(eV) 
   0   1.0000     -14.030458      -381.7882 
   1   1.0000      -0.674680       -18.3590 
   2   1.0000      -0.318219        -8.6592 
   3   0.0000      -0.158757        -4.3200 
   4   0.0000      -0.158757        -4.3200 
   5   0.0000      -0.011237        -0.3058 
   6   0.0000       0.029148         0.7932 
   7   0.0000       0.039360         1.0710 
   8   0.0000       0.039360         1.0710 
   9   0.0000       0.050421         1.3720 
  10   0.0000       0.078089         2.1249 
  11   0.0000       0.092430         2.5152 
  12   0.0000       0.092430         2.5152 
  13   0.0000       0.127815         3.4780 
  14   0.0000       0.153652         4.1811 
  15   0.0000       0.153652         4.1811 
  16   0.0000       0.156328         4.2539 
  17   0.0000       0.156328         4.2539 
  18   0.0000       0.168277         4.5791 
  19   0.0000       0.191765         5.2182 
  20   0.0000       0.203351         5.5335 
  21   0.0000       0.203351         5.5335 
  22   0.0000       0.205931         5.6037 
  23   0.0000       0.214608         5.8398 
  24   0.0000       0.214608         5.8398 
  25   0.0000       0.241773         6.5790 
  26   0.0000       0.241773         6.5790 
  27   0.0000       0.300903         8.1880 
  28   0.0000       0.300903         8.1880 
  29   0.0000       0.323064         8.7910 
  30   0.0000       0.348151         9.4737 
  31   0.0000       0.348151         9.4737 
  32   0.0000       0.351474         9.5641 
  33   0.0000       0.365002         9.9322 
  34   0.0000       0.365002         9.9322 
  35   0.0000       0.393293        10.7020 
  36   0.0000       0.393293        10.7020 
  37   0.0000       0.395984        10.7753 
  38   0.0000       0.419530        11.4160 
  39   0.0000       0.419530        11.4160 
  40   0.0000       0.455423        12.3927 
  41   0.0000       0.471388        12.8271 
  42   0.0000       0.480006        13.0616 
  43   0.0000       0.480006        13.0616 
  44   0.0000       0.486413        13.2360 
  45   0.0000       0.486413        13.2360 
  46   0.0000       0.497160        13.5284 
  47   0.0000       0.497160        13.5284 
  48   0.0000       0.532634        14.4937 
  49   0.0000       0.532634        14.4937 
  50   0.0000       0.575525        15.6608 
  51   0.0000       0.575525        15.6608 
  52   0.0000       0.602373        16.3914 
  53   0.0000       0.609750        16.5921 
  54   0.0000       0.609750        16.5921 
  55   0.0000       0.614252        16.7147 
  56   0.0000       0.614252        16.7147 
  57   0.0000       0.628341        17.0980 
  58   0.0000       0.628341        17.0980 
  59   0.0000       0.662406        18.0250 
  60   0.0000       0.662406        18.0250 
  61   0.0000       0.687384        18.7047 
  62   0.0000       0.738330        20.0910 
  63   0.0000       0.738330        20.0910 
  64   0.0000       0.748939        20.3797 
  65   0.0000       0.748939        20.3797 
  66   0.0000       0.757567        20.6145 
  67   0.0000       0.771269        20.9873 
  68   0.0000       0.771269        20.9873 
  69   0.0000       0.793696        21.5976 
  70   0.0000       0.835368        22.7315 
  71   0.0000       0.835368        22.7315 
  72   0.0000       0.862697        23.4752 
  73   0.0000       0.862697        23.4752 
  74   0.0000       0.903516        24.5859 
  75   0.0000       0.907934        24.7062 
  76   0.0000       0.907934        24.7062 
  77   0.0000       0.924532        25.1578 
  78   0.0000       0.924532        25.1578 
  79   0.0000       0.926405        25.2088 
  80   0.0000       0.926405        25.2088 
  81   0.0000       0.943275        25.6678 
  82   0.0000       0.983208        26.7544 
  83   0.0000       0.983208        26.7544 
  84   0.0000       1.112683        30.2776 
  85   0.0000       1.185615        32.2622 
  86   0.0000       1.185615        32.2622 
  87   0.0000       1.224243        33.3133 
  88   0.0000       1.224243        33.3133 
  89   0.0000       1.363226        37.0953 
  90   0.0000       1.375525        37.4299 
  91   0.0000       1.375525        37.4299 
  92   0.0000       1.453191        39.5433 
  93   0.0000       1.453191        39.5433 
  94   0.0000       1.550709        42.1969 
  95   0.0000       1.550709        42.1969 
  96   0.0000       1.562778        42.5253 
  97   0.0000       1.650385        44.9093 
  98   0.0000       1.669056        45.4173 
  99   0.0000       1.669056        45.4173 
 100   0.0000       1.821873        49.5757 
 101   0.0000       1.821873        49.5757 
 102   0.0000       1.920312        52.2544 
 103   0.0000       2.003911        54.5292 
 104   0.0000       2.003911        54.5292 
 105   0.0000       2.306162        62.7539 
 106   0.0000       2.424876        65.9842 
 107   0.0000       2.424876        65.9842 
 108   0.0000       2.576554        70.1116 
 109   0.0000       2.738205        74.5103 
 110   0.0000       2.859720        77.8169 
 111   0.0000       2.859720        77.8169 
 112   0.0000       2.950597        80.2898 
 113   0.0000       2.950597        80.2898 
 114   0.0000       3.086303        83.9826 
 115   0.0000       3.086303        83.9826 
 116   0.0000       3.171761        86.3080 
 117   0.0000       3.463594        94.2492 
 118   0.0000       3.463594        94.2492 
 119   0.0000       3.487803        94.9080 
 120   0.0000       3.487803        94.9080 
 121   0.0000       3.564965        97.0076 
 122   0.0000       3.626237        98.6749 
 123   0.0000       3.626237        98.6749 
 124   0.0000       3.865184       105.1770 
 125   0.0000       3.865184       105.1770 
 126   0.0000       3.942697       107.2862 
 127   0.0000       4.154643       113.0536 
 128   0.0000       4.154643       113.0536 
 129   0.0000       4.306648       117.1899 
 130   0.0000       4.513111       122.8080 
 131   0.0000       4.513111       122.8080 
 132   0.0000       4.827660       131.3673 
 133   0.0000       4.827660       131.3673 
 134   0.0000       4.931960       134.2054 
 135   0.0000       4.931960       134.2054 
 136   0.0000       5.048971       137.3895 
 137   0.0000       5.048971       137.3895 
 138   0.0000       5.084910       138.3674 
 139   0.0000       5.297700       144.1577 
 140   0.0000       5.297700       144.1577 
 141   0.0000       5.615695       152.8108 
 142   0.0000       5.713059       155.4602 
 143   0.0000       5.713059       155.4602 
 144   0.0000       5.955800       162.0656 
 145   0.0000       6.215652       169.1365 
 146   0.0000       6.215652       169.1365 
 147   0.0000       6.291261       171.1939 
 148   0.0000       6.441412       175.2797 
 149   0.0000       6.441412       175.2797 
 150   0.0000       6.920876       188.3266 
 151   0.0000       6.920876       188.3266 
 152   0.0000       7.462632       203.0685 
 153   0.0000       7.462632       203.0685 
 154   0.0000       7.701510       209.5687 
 155   0.0000       8.227962       223.8942 
 156   0.0000       8.276194       225.2067 
 157   0.0000       8.276194       225.2067 
 158   0.0000       8.687021       236.3859 
 159   0.0000       8.687021       236.3859 
 160   0.0000       8.979593       244.3472 
 161   0.0000       8.979593       244.3472 
 162   0.0000       9.270202       252.2550 
 163   0.0000       9.552600       259.9395 
 164   0.0000       9.552600       259.9395 
 165   0.0000       9.869545       268.5640 
 166   0.0000      11.179143       304.1999 
 167   0.0000      11.179143       304.1999 
 168   0.0000      11.217762       305.2508 
 169   0.0000      11.217762       305.2508 
 170   0.0000      11.317096       307.9538 
 171   0.0000      11.384712       309.7938 
 172   0.0000      11.384712       309.7938 
 173   0.0000      11.429641       311.0163 
 174   0.0000      11.429641       311.0163 
 175   0.0000      11.445389       311.4449 
 176   0.0000      11.445389       311.4449 
 177   0.0000      11.477620       312.3219 
 178   0.0000      11.477620       312.3219 
 179   0.0000      11.525182       313.6162 
 180   0.0000      11.525182       313.6162 
 181   0.0000      11.662046       317.3404 
 182   0.0000      12.333260       335.6051 
 183   0.0000      12.337911       335.7316 
 184   0.0000      12.337911       335.7316 
 185   0.0000      12.666099       344.6621 
 186   0.0000      12.666099       344.6621 
 187   0.0000      13.623159       370.7050 
 188   0.0000      13.623159       370.7050 
 189   0.0000      14.002056       381.0153 
 190   0.0000      14.341919       390.2635 
 191   0.0000      14.341919       390.2635 
 192   0.0000      14.397354       391.7719 
 193   0.0000      14.397354       391.7719 
 194   0.0000      14.904289       405.5663 
 195   0.0000      14.904289       405.5663 
 196   0.0000      15.261123       415.2763 
 197   0.0000      15.261123       415.2763 
 198   0.0000      15.450091       420.4183 
 199   0.0000      16.031744       436.2459 
 200   0.0000      16.031744       436.2459 
 201   0.0000      16.495168       448.8563 
 202   0.0000      16.701736       454.4773 
 203   0.0000      16.701736       454.4773 
 204   0.0000      16.843454       458.3337 
 205   0.0000      16.843455       458.3337 
 206   0.0000      17.109881       465.5835 
 207   0.0000      17.109881       465.5835 
 208   0.0000      17.247214       469.3205 
 209   0.0000      17.247214       469.3205 
 210   0.0000      17.796045       484.2550 
 211   0.0000      18.981846       516.5223 
 212   0.0000      18.981846       516.5223 
 213   0.0000      20.358756       553.9899 
 214   0.0000      20.358756       553.9899 
 215   0.0000      20.856103       567.5234 
 216   0.0000      23.237937       632.3364 
 217   0.0000      23.327287       634.7678 
 218   0.0000      23.327287       634.7678 
 219   0.0000      25.518318       694.3887 
 220   0.0000      25.930890       705.6154 
 221   0.0000      25.930890       705.6154 
 222   0.0000      27.671722       752.9858 
 223   0.0000      41.006260      1115.8370 
 224   0.0000      47.651735      1296.6696 
 225   0.0000      47.651737      1296.6697 
 226   0.0000      47.923619      1304.0680 
 227   0.0000      47.923619      1304.0680 
 228   0.0000      48.654371      1323.9527 
 229   0.0000      90.893733      2473.3442 
 230   0.0000      90.893733      2473.3442 
 231   0.0000      92.576898      2519.1455 
 232   0.0000     103.623924      2819.7503 

                    ********************************
                    * MULLIKEN POPULATION ANALYSIS *
                    ********************************

--------------------------------------------
MULLIKEN ATOMIC CHARGES AND SPIN POPULATIONS
--------------------------------------------
   0 N :   -0.164986    2.003915
   1 H :    0.164986   -0.003915
Sum of atomic charges         :    0.0000000
Sum of atomic spin populations:    2.0000000

-----------------------------------------------------
MULLIKEN REDUCED ORBITAL CHARGES AND SPIN POPULATIONS
-----------------------------------------------------
CHARGE
  0 N s       :     3.928264  s :     3.928264
      pz      :     1.268966  p :     3.218885
      px      :     0.974960
      py      :     0.974960
      dz2     :     0.013329  d :     0.017219
      dxz     :     0.001945
      dyz     :     0.001945
      dx2y2   :     0.000000
      dxy     :     0.000000
      f0      :     0.000581  f :     0.000524
      f+1     :    -0.000028
      f-1     :    -0.000028
      f+2     :     0.000000
      f-2     :    -0.000000
      f+3     :     0.000000
      f-3     :     0.000000
      g0      :     0.000098  g :     0.000097
      g+1     :    -0.000000
      g-1     :    -0.000000
      g+2     :    -0.000000
      g-2     :    -0.000000
      g+3     :     0.000000
      g-3     :     0.000000
      g+4     :     0.000000
      g-4     :     0.000000
      h0      :    -0.000002  h :    -0.000003
      h+1     :    -0.000000
      h-1     :    -0.000000
      h+2     :    -0.000000
      h-2     :    -0.000000
      h+3     :     0.000000
      h-3     :     0.000000
      h+4     :     0.000000
      h-4     :    -0.000000
      h+5     :     0.000000
      h-5     :     0.000000
  1 H s       :     0.767477  s :     0.767477
      pz      :     0.017349  p :     0.054793
      px      :     0.018722
      py      :     0.018722
      dz2     :     0.003360  d :     0.010322
      dxz     :     0.003481
      dyz     :     0.003481
      dx2y2   :    -0.000000
      dxy     :     0.000000
      f0      :     0.000539  f :     0.002186
      f+1     :     0.000824
      f-1     :     0.000824
      f+2     :    -0.000000
      f-2     :    -0.000000
      f+3     :     0.000000
      f-3     :     0.000000
      g0      :     0.000041  g :     0.000235
      g+1     :     0.000097
      g-1     :     0.000097
      g+2     :    -0.000000
      g-2     :     0.000000
      g+3     :     0.000000
      g-3     :     0.000000
      g+4     :     0.000000
      g-4     :     0.000000

SPIN
  0 N s       :    -0.007419  s :    -0.007419
      pz      :     0.054152  p :     2.004071
      px      :     0.974960
      py      :     0.974960
      dz2     :     0.004318  d :     0.008208
      dxz     :     0.001945
      dyz     :     0.001945
      dx2y2   :     0.000000
      dxy     :     0.000000
      f0      :    -0.000854  f :    -0.000911
      f+1     :    -0.000028
      f-1     :    -0.000028
      f+2     :    -0.000000
      f-2     :    -0.000000
      f+3     :     0.000000
      f-3     :     0.000000
      g0      :    -0.000039  g :    -0.000039
      g+1     :    -0.000000
      g-1     :    -0.000000
      g+2     :    -0.000000
      g-2     :    -0.000000
      g+3     :     0.000000
      g-3     :     0.000000
      g+4     :     0.000000
      g-4     :     0.000000
      h0      :     0.000006  h :     0.000005
      h+1     :    -0.000000
      h-1     :    -0.000000
      h+2     :    -0.000000
      h-2     :    -0.000000
      h+3     :     0.000000
      h-3     :     0.000000
      h+4     :    -0.000000
      h-4     :    -0.000000
      h+5     :     0.000000
      h-5     :     0.000000
  1 H s       :    -0.051491  s :    -0.051491
      pz      :     0.001423  p :     0.038867
      px      :     0.018722
      py      :     0.018722
      dz2     :    -0.000337  d :     0.006625
      dxz     :     0.003481
      dyz     :     0.003481
      dx2y2   :     0.000000
      dxy     :     0.000000
      f0      :     0.000214  f :     0.001862
      f+1     :     0.000824
      f-1     :     0.000824
      f+2     :    -0.000000
      f-2     :    -0.000000
      f+3     :     0.000000
      f-3     :     0.000000
      g0      :     0.000027  g :     0.000222
      g+1     :     0.000097
      g-1     :     0.000097
      g+2     :     0.000000
      g-2     :    -0.000000
      g+3     :     0.000000
      g-3     :     0.000000
      g+4     :    -0.000000
      g-4     :    -0.000000


                     *******************************
                     * LOEWDIN POPULATION ANALYSIS *
                     *******************************

-------------------------------------------
LOEWDIN ATOMIC CHARGES AND SPIN POPULATIONS
-------------------------------------------
   0 N :    0.759954    1.597845
   1 H :   -0.759954    0.402155

----------------------------------------------------
LOEWDIN REDUCED ORBITAL CHARGES AND SPIN POPULATIONS
----------------------------------------------------
CHARGE
  0 N s       :     3.262515  s :     3.262515
      pz      :     1.353438  p :     2.926271
      px      :     0.786417
      py      :     0.786417
      dz2     :     0.039866  d :     0.042608
      dxz     :     0.001371
      dyz     :     0.001371
      dx2y2   :     0.000000
      dxy     :     0.000000
      f0      :     0.005817  f :     0.007302
      f+1     :     0.000742
      f-1     :     0.000742
      f+2     :     0.000000
      f-2     :     0.000000
      f+3     :     0.000000
      f-3     :     0.000000
      g0      :     0.000619  g :     0.000843
      g+1     :     0.000112
      g-1     :     0.000112
      g+2     :     0.000000
      g-2     :     0.000000
      g+3     :     0.000000
      g-3     :     0.000000
      g+4     :     0.000000
      g-4     :     0.000000
      h0      :     0.000296  h :     0.000508
      h+1     :     0.000106
      h-1     :     0.000106
      h+2     :     0.000000
      h-2     :     0.000000
      h+3     :     0.000000
      h-3     :     0.000000
      h+4     :     0.000000
      h-4     :     0.000000
      h+5     :     0.000000
      h-5     :     0.000000
  1 H s       :     0.813008  s :     0.813008
      pz      :     0.351842  p :     0.562351
      px      :     0.105255
      py      :     0.105255
      dz2     :     0.142978  d :     0.307870
      dxz     :     0.082446
      dyz     :     0.082446
      dx2y2   :     0.000000
      dxy     :     0.000000
      f0      :     0.025165  f :     0.068043
      f+1     :     0.021439
      f-1     :     0.021439
      f+2     :     0.000000
      f-2     :     0.000000
      f+3     :     0.000000
      f-3     :     0.000000
      g0      :     0.004457  g :     0.008681
      g+1     :     0.002112
      g-1     :     0.002112
      g+2     :     0.000000
      g-2     :     0.000000
      g+3     :     0.000000
      g-3     :     0.000000
      g+4     :     0.000000
      g-4     :     0.000000

SPIN
  0 N s       :     0.010839  s :     0.010839
      pz      :     0.012222  p :     1.585055
      px      :     0.786417
      py      :     0.786417
      dz2     :    -0.000949  d :     0.001793
      dxz     :     0.001371
      dyz     :     0.001371
      dx2y2   :     0.000000
      dxy     :     0.000000
      f0      :    -0.001675  f :    -0.000190
      f+1     :     0.000742
      f-1     :     0.000742
      f+2     :    -0.000000
      f-2     :    -0.000000
      f+3     :     0.000000
      f-3     :     0.000000
      g0      :    -0.000098  g :     0.000126
      g+1     :     0.000112
      g-1     :     0.000112
      g+2     :    -0.000000
      g-2     :     0.000000
      g+3     :     0.000000
      g-3     :     0.000000
      g+4     :    -0.000000
      g-4     :     0.000000
      h0      :     0.000009  h :     0.000221
      h+1     :     0.000106
      h-1     :     0.000106
      h+2     :     0.000000
      h-2     :     0.000000
      h+3     :     0.000000
      h-3     :     0.000000
      h+4     :    -0.000000
      h-4     :     0.000000
      h+5     :     0.000000
      h-5     :     0.000000
  1 H s       :    -0.028322  s :    -0.028322
      pz      :     0.003921  p :     0.214431
      px      :     0.105255
      py      :     0.105255
      dz2     :     0.004620  d :     0.169513
      dxz     :     0.082446
      dyz     :     0.082446
      dx2y2   :     0.000000
      dxy     :     0.000000
      f0      :    -0.000281  f :     0.042596
      f+1     :     0.021439
      f-1     :     0.021439
      f+2     :     0.000000
      f-2     :    -0.000000
      f+3     :     0.000000
      f-3     :     0.000000
      g0      :    -0.000286  g :     0.003938
      g+1     :     0.002112
      g-1     :     0.002112
      g+2     :     0.000000
      g-2     :    -0.000000
      g+3     :     0.000000
      g-3     :     0.000000
      g+4     :    -0.000000
      g-4     :     0.000000


                      *****************************
                      * MAYER POPULATION ANALYSIS *
                      *****************************

  NA   - Mulliken gross atomic population
  ZA   - Total nuclear charge
  QA   - Mulliken gross atomic charge
  VA   - Mayer's total valence
  BVA  - Mayer's bonded valence
  FA   - Mayer's free valence

  ATOM       NA         ZA         QA         VA         BVA        FA
  0 N      7.1650     7.0000    -0.1650     2.8950     0.9754     1.9196
  1 H      0.8350     1.0000     0.1650     0.9802     0.9754     0.0048

  Mayer bond orders larger than 0.1
B(  0-N ,  1-H ) :   0.9754 

-------
TIMINGS
-------

Total SCF time: 0 days 0 hours 7 min 2 sec 

Total time                  ....     422.101 sec
Sum of individual times     ....     421.519 sec  ( 99.9%)

Fock matrix formation       ....     418.205 sec  ( 99.1%)
  XC integration            ....      33.976 sec  (  8.1% of F)
    Basis function eval.    ....       2.995 sec  (  8.8% of XC)
    Density eval.           ....       6.868 sec  ( 20.2% of XC)
    XC-Functional eval.     ....       0.613 sec  (  1.8% of XC)
    XC-Potential eval.      ....      22.914 sec  ( 67.4% of XC)
Diagonalization             ....       0.364 sec  (  0.1%)
Density matrix formation    ....       0.007 sec  (  0.0%)
Population analysis         ....       0.040 sec  (  0.0%)
Initial guess               ....       1.521 sec  (  0.4%)
Orbital Transformation      ....       0.000 sec  (  0.0%)
Orbital Orthonormalization  ....       0.000 sec  (  0.0%)
DIIS solution               ....       0.203 sec  (  0.0%)
Grid generation             ....       1.178 sec  (  0.3%)

-------------------------   --------------------
FINAL SINGLE POINT ENERGY       -55.176843207479
-------------------------   --------------------


                            ***************************************
                            *     ORCA property calculations      *
                            ***************************************

                                    ---------------------
                                    Active property flags
                                    ---------------------
   (+) Dipole Moment
   (+) Polarizability


------------------------------------------------------------------------------
                       ORCA ELECTRIC PROPERTIES CALCULATION
------------------------------------------------------------------------------

Dipole Moment Calculation                       ... on
Quadrupole Moment Calculation                   ... off
Polarizability Calculation                      ... Analytic (CP-SCF)
GBWName                                         ... nh_pbe.gbw
Electron density file                           ... nh_pbe.scfp.tmp
The origin for moment calculation is the CENTER OF MASS  = ( 0.000000,  0.000000  0.131455)

-------------
DIPOLE MOMENT
-------------
                                X             Y             Z
Electronic contribution:      0.00000       0.00000      -0.32349
Nuclear contribution   :      0.00000       0.00000       0.90649
                        -----------------------------------------
Total Dipole Moment    :      0.00000       0.00000       0.58301
                        -----------------------------------------
Magnitude (a.u.)       :      0.58301
Magnitude (Debye)      :      1.48188



--------------------
Rotational spectrum 
--------------------
 
Rotational constants in cm-1:     0.000000    16.696652    16.696652 
Rotational constants in MHz :     0.000000 500553.040588 500553.040588 

 Dipole components along the rotational axes: 
x,y,z [a.u.] :     0.583006     0.000000     0.000000 
x,y,z [Debye]:     1.481883     0.000000     0.000000 

 
Transforming and storing MO dipole integrals   ... done

                ... starting polarizability calculation

Opening the Dipole integral file               ... (nh_pbe.dmo.tmp) done
Reading Dipole-MO integrals                    ... done
Solving CP-SCF equations                       ... 
------------------------------------------------------------------------------
                           ORCA CP-SCF CALCULATION
------------------------------------------------------------------------------

Input orbitals are from        ... nh_pbe.gbw
Input Perturbation             ... nh_pbe.cpv.tmp
Wavefunction output            ... nh_pbe.cpu.tmp
Perturbation mode              ... Real perturbation (singlet)
Solver                         ... POPLE
Max. number of iterations      ... 200
Convergence tolerance          ... 1.000e-06
Integral handling              ... Direct
Number of perturbations        ... 3
Number of operators            ... 2
Orbital ranges used for CP-SCF:
 Operator 0:  Orbitals   0...  4  to   5...232
 Operator 1:  Orbitals   0...  2  to   3...232
DFT calculation                         ... on
Exchange functional (SCF)               ... PBE
Exchange functional (CP-SCF)            ... PBE
   PBE kappa parameter  XKappa (SCF)    ...  0.804000
   PBE kappa parameter  XKappa (CP-SCF) ...  0.804000
   PBE mue parameter   XMuePBE (SCF)    ...  0.219520
   PBE mue parameter   XMuePBE (CP-SCF) ...  0.219520
Correlation functional (SCF)            ... PBE
Correlation functional (CP-SCF)         ... PBE
   PBE beta parameter CBetaPBE (SCF)    ...  0.066725
   PBE beta parameter CBetaPBE (CP-SCF) ...  0.066725
 LDA part of GGA corr.  LDAOpt (SCF)    ... PW91-LDA
 LDA part of GGA corr.  LDAOpt (CP-SCF) ... PW91-LDA
Variables per vector in CP-SCF ... 1830
Number of vectors sought       ... 3
Recalculating density on grid  ... done
Calculating the xc-kernel      ... done
     CP-SCF ITERATION   0: 
     CP-SCF ITERATION   1:      0.062964251791
     CP-SCF ITERATION   2:      0.000668305621
     CP-SCF ITERATION   3:      0.000008465104
     CP-SCF ITERATION   4:      0.000000322366
done
Reading CP-SCF coefficients                    ... done
Doing the polarizability tensor   ... done
Cleaning up                                    ... done

-------------------------
THE POLARIZABILITY TENSOR
-------------------------

The raw cartesian tensor (atomic units):
    9.95224      0.00000     -0.00000  
    0.00000      9.95224     -0.00000  
   -0.00000     -0.00000     12.51140  
diagonalized tensor: 
    9.95224      9.95224     12.51140  

    0.71396     -0.70018     -0.00000  
   -0.70018     -0.71396     -0.00000  
    0.00000     -0.00000      1.00000  

Isotropic polarizability :  10.80529


Timings for individual modules:

Sum of individual times         ...      732.581 sec (=  12.210 min)
GTO integral calculation        ...       10.792 sec (=   0.180 min)   1.5 %
SCF iterations                  ...      426.848 sec (=   7.114 min)  58.3 %
Solution of CP-SCF eqns.        ...      294.941 sec (=   4.916 min)  40.3 %
                             ****ORCA TERMINATED NORMALLY****
TOTAL RUN TIME: 0 days 0 hours 12 minutes 12 seconds 981 msec
