
                                 *****************
                                 * O   R   C   A *
                                 *****************

           --- An Ab Initio, DFT and Semiempirical electronic structure package ---

                  #######################################################
                  #                        -***-                        #
                  #          Department of theory and spectroscopy      #
                  #               Directorship: Frank Neese             #
                  #        Max Planck Institute fuer Kohlenforschung    #
                  #                Kaiser Wilhelm Platz 1               #
                  #                 D-45470 Muelheim/Ruhr               #
                  #                      Germany                        #
                  #                                                     #
                  #                  All rights reserved                #
                  #                        -***-                        #
                  #######################################################


                         Program Version 4.1.2  - RELEASE  -


 With contributions from (in alphabetic order):
   Daniel Aravena         : Magnetic Properties
   Michael Atanasov       : Ab Initio Ligand Field Theory
   Alexander A. Auer      : GIAO ZORA
   Ute Becker             : Parallelization
   Giovanni Bistoni       : ED, Open-shell LED
   Martin Brehm           : Molecular dynamics
   Dmytro Bykov           : SCF Hessian
   Vijay G. Chilkuri      : MRCI spin determinant printing
   Dipayan Datta          : RHF DLPNO-CCSD density
   Achintya Kumar Dutta   : EOM-CC, STEOM-CC
   Dmitry Ganyushin       : Spin-Orbit,Spin-Spin,Magnetic field MRCI
   Miquel Garcia          : C-PCM Hessian
   Yang Guo               : DLPNO-NEVPT2, CIM, IAO-localization
   Andreas Hansen         : Spin unrestricted coupled pair/coupled cluster methods
   Benjamin Helmich-Paris : CASSCF linear response (MC-RPA)
   Lee Huntington         : MR-EOM, pCC
   Robert Izsak           : Overlap fitted RIJCOSX, COSX-SCS-MP3, EOM
   Christian Kollmar      : KDIIS, OOCD, Brueckner-CCSD(T), CCSD density
   Simone Kossmann        : Meta GGA functionals, TD-DFT gradient, OOMP2, MP2 Hessian
   Martin Krupicka        : AUTO-CI
   Lucas Lang             : DCDCAS
   Dagmar Lenk            : GEPOL surface, SMD
   Dimitrios Liakos       : Extrapolation schemes; parallel MDCI
   Dimitrios Manganas     : ROCIS; embedding schemes
   Dimitrios Pantazis     : SARC Basis sets
   Taras Petrenko         : DFT Hessian,TD-DFT gradient, ASA, ECA, R-Raman, ABS, FL, XAS/XES, NRVS
   Peter Pinski           : DLPNO-MP2, DLPNO-MP2 Gradient
   Christoph Reimann      : Effective Core Potentials
   Marius Retegan         : Local ZFS, SOC
   Christoph Riplinger    : Optimizer, TS searches, QM/MM, DLPNO-CCSD(T), (RO)-DLPNO pert. Triples
   Tobias Risthaus        : Range-separated hybrids, TD-DFT gradient, RPA, STAB
   Michael Roemelt        : Restricted open shell CIS
   Masaaki Saitow         : Open-shell DLPNO
   Barbara Sandhoefer     : DKH picture change effects
   Avijit Sen             : IP-ROCIS
   Kantharuban Sivalingam : CASSCF convergence, NEVPT2, FIC-MRCI
   Bernardo de Souza      : ESD, SOC TD-DFT
   Georgi Stoychev        : AutoAux, RI-MP2 NMR
   Willem Van den Heuvel  : Paramagnetic NMR
   Boris Wezisla          : Elementary symmetry handling
   Frank Wennmohs         : Technical directorship


 We gratefully acknowledge several colleagues who have allowed us to
 interface, adapt or use parts of their codes:
   Stefan Grimme, W. Hujo, H. Kruse,             : VdW corrections, initial TS optimization,
                  C. Bannwarth                     DFT functionals, gCP, sTDA/sTD-DF
   Ed Valeev                                     : LibInt (2-el integral package), F12 methods
   Garnet Chan, S. Sharma, J. Yang, R. Olivares  : DMRG
   Ulf Ekstrom                                   : XCFun DFT Library
   Mihaly Kallay                                 : mrcc  (arbitrary order and MRCC methods)
   Andreas Klamt, Michael Diedenhofen            : otool_cosmo (COSMO solvation model)
   Jiri Pittner, Ondrej Demel                    : Mk-CCSD
   Frank Weinhold                                : gennbo (NPA and NBO analysis)
   Christopher J. Cramer and Donald G. Truhlar   : smd solvation model
   Lars Goerigk                                  : TD-DFT with DH, B97 family of functionals
   V. Asgeirsson, H. Jonsson                     : NEB implementation
   FAccTs GmbH                                   : IRC, NEB, NEB-TS, Multilevel


 Your calculation uses the libint2 library for the computation of 2-el integrals
 For citations please refer to: http://libint.valeyev.net

 This ORCA versions uses:
   CBLAS   interface :  Fast vector & matrix operations
   LAPACKE interface :  Fast linear algebra routines
   SCALAPACK package :  Parallel linear algebra routines


----- Orbital basis set information -----
Your calculation utilizes the basis: aug-pc-4
   H, C-F              : F. Jensen, J. Chem. Phys. 115, 9113 (2001).
                         F. Jensen, J. Chem. Phys. 116, 7372 (2002).
                         F. Jensen, J. Chem. Phys. 117, 9234 (2002).
   Si-Cl               : F. Jensen, T. Helgaker, J. Chem. Phys. 121, 3463 (2004).
   He-B, Ne-Mg, Al, Ar : F. Jensen, J. Phys. Chem. A 111, 11198 (2007).
   K, Ca, Ga-Kr        : F. Jensen, J. Chem. Phys. 136, 094110 (2012).
   Sc-Zn               : F. Jensen, J. Chem. Phys. 138, 014107 (2013).

================================================================================
                                        WARNINGS
                       Please study these warnings very carefully!
================================================================================


INFO   : the flag for use of LIBINT has been found!

================================================================================
                                       INPUT FILE
================================================================================
NAME = nocl_pbe.inp
|  1> !uks pbe nori aug-pc-4 grid7 nofinalgrid verytightscf
|  2> 
|  3> %maxcore 1500
|  4> 
|  5> %pal nprocs 4 end
|  6> 
|  7> %scf
|  8> 	maxiter 200
|  9> end
| 10> %elprop
| 11> 	dipole true
| 12> 	 polar 1
| 13> 	 maxiter 200
| 14> end
| 15> 
| 16> * xyz 0 1
| 17> Cl -0.5312 -0.9298 0.0000
| 18> N 0.0000 0.9724 0.0000
| 19> O 1.1287 1.1250 0.0000
| 20> *
| 21> 
| 22>                          ****END OF INPUT****
================================================================================

                       ****************************
                       * Single Point Calculation *
                       ****************************

---------------------------------
CARTESIAN COORDINATES (ANGSTROEM)
---------------------------------
  Cl    -0.531200   -0.929800    0.000000
  N      0.000000    0.972400    0.000000
  O      1.128700    1.125000    0.000000

----------------------------
CARTESIAN COORDINATES (A.U.)
----------------------------
  NO LB      ZA    FRAG     MASS         X           Y           Z
   0 Cl   17.0000    0    35.453   -1.003823   -1.757067    0.000000
   1 N     7.0000    0    14.007    0.000000    1.837570    0.000000
   2 O     8.0000    0    15.999    2.132934    2.125942    0.000000

--------------------------------
INTERNAL COORDINATES (ANGSTROEM)
--------------------------------
 Cl     0   0   0     0.000000000000     0.00000000     0.00000000
 N      1   0   0     1.974978045448     0.00000000     0.00000000
 O      2   1   0     1.138969029430   113.30237807     0.00000000

---------------------------
INTERNAL COORDINATES (A.U.)
---------------------------
 Cl     0   0   0     0.000000000000     0.00000000     0.00000000
 N      1   0   0     3.732167626403     0.00000000     0.00000000
 O      2   1   0     2.152339540640   113.30237807     0.00000000

---------------------
BASIS SET INFORMATION
---------------------
There are 3 groups of distinct atoms

 Group   1 Type Cl  : 44s27p7d4f3g2h contracted to 8s7p7d4f3g2h pattern {15121211111/111111111/1111111/1111/111/11}
 Group   2 Type N   : 27s12p7d4f3g2h contracted to 9s8p7d4f3g2h pattern {1191111111/51111111/1111111/1111/111/11}
 Group   3 Type O   : 27s12p7d4f3g2h contracted to 9s8p7d4f3g2h pattern {1191111111/51111111/1111111/1111/111/11}

Atom   0Cl   basis set group =>   1
Atom   1N    basis set group =>   2
Atom   2O    basis set group =>   3


           ************************************************************
           *        Program running with 4 parallel MPI-processes     *
           *              working on a common directory               *
           ************************************************************
------------------------------------------------------------------------------
                           ORCA GTO INTEGRAL CALCULATION
------------------------------------------------------------------------------

                         BASIS SET STATISTICS AND STARTUP INFO

 # of primitive gaussian shells          ...  197
 # of primitive gaussian functions       ...  587
 # of contracted shells                  ...   97
 # of contracted basis functions         ...  431
 Highest angular momentum                ...    5
 Maximum contraction depth               ...   15
 Integral package used                   ... LIBINT
 Integral threshhold            Thresh   ...  1.000e-12
 Primitive cut-off              TCut     ...  1.000e-14


------------------------------ INTEGRAL EVALUATION ----------------------------


 * One electron integrals 
 Pre-screening matrix                    ... done
 Shell pair data                         ... done (   0.002 sec)



           ************************************************************
           *        Program running with 4 parallel MPI-processes     *
           *              working on a common directory               *
           ************************************************************
-------------------------------------------------------------------------------
                                 ORCA SCF
-------------------------------------------------------------------------------

------------
SCF SETTINGS
------------
Hamiltonian:
 Density Functional     Method          .... DFT(GTOs)
 Exchange Functional    Exchange        .... PBE
   PBE kappa parameter   XKappa         ....  0.804000
   PBE mue parameter    XMuePBE         ....  0.219520
 Correlation Functional Correlation     .... PBE
   PBE beta parameter  CBetaPBE         ....  0.066725
 LDA part of GGA corr.  LDAOpt          .... PW91-LDA
 Gradients option       PostSCFGGA      .... off
   Density functional embedding theory  .... OFF
   NL short-range parameter             ....  6.400000


General Settings:
 Integral files         IntName         .... nocl_pbe
 Hartree-Fock type      HFTyp           .... UHF
 Total Charge           Charge          ....    0
 Multiplicity           Mult            ....    1
 Number of Electrons    NEL             ....   32
 Basis Dimension        Dim             ....  431
 Nuclear Repulsion      ENuc            ....     85.1484193745 Eh

Convergence Acceleration:
 DIIS                   CNVDIIS         .... on
   Start iteration      DIISMaxIt       ....    12
   Startup error        DIISStart       ....  0.200000
   # of expansion vecs  DIISMaxEq       ....     5
   Bias factor          DIISBfac        ....   1.050
   Max. coefficient     DIISMaxC        ....  10.000
 Newton-Raphson         CNVNR           .... off
 SOSCF                  CNVSOSCF        .... off
 Level Shifting         CNVShift        .... on
   Level shift para.    LevelShift      ....    0.2500
   Turn off err/grad.   ShiftErr        ....    0.0010
 Zerner damping         CNVZerner       .... off
 Static damping         CNVDamp         .... on
   Fraction old density DampFac         ....    0.7000
   Max. Damping (<1)    DampMax         ....    0.9800
   Min. Damping (>=0)   DampMin         ....    0.0000
   Turn off err/grad.   DampErr         ....    0.1000
 Fernandez-Rico         CNVRico         .... off

SCF Procedure:
 Maximum # iterations   MaxIter         ....   200
 SCF integral mode      SCFMode         .... Direct
   Integral package                     .... LIBINT
 Reset frequency        DirectResetFreq ....    20
 Integral Threshold     Thresh          ....  1.000e-12 Eh
 Primitive CutOff       TCut            ....  1.000e-14 Eh

Convergence Tolerance:
 Convergence Check Mode ConvCheckMode   .... Total+1el-Energy
 Convergence forced     ConvForced      .... 0
 Energy Change          TolE            ....  1.000e-09 Eh
 1-El. energy change                    ....  1.000e-06 Eh
 DIIS Error             TolErr          ....  1.000e-08


Diagonalization of the overlap matrix:
Smallest eigenvalue                        ... 1.408e-06
Time for diagonalization                   ...    0.042 sec
Threshold for overlap eigenvalues          ... 1.000e-08
Number of eigenvalues below threshold      ... 0
Time for construction of square roots      ...    0.033 sec
Total time needed                          ...    0.076 sec

-------------------
DFT GRID GENERATION
-------------------

General Integration Accuracy     IntAcc      ...  5.670
Radial Grid Type                 RadialGrid  ... Gauss-Chebyshev
Angular Grid (max. acc.)         AngularGrid ... Lebedev-770
Angular grid pruning method      GridPruning ... 3 (G Style)
Weight generation scheme         WeightScheme... Becke
Basis function cutoff            BFCut       ...    1.0000e-12
Integration weight cutoff        WCut        ...    1.0000e-14
Grids for H and He will be reduced by one unit

# of grid points (after initial pruning)     ...  77392 (   0.0 sec)
# of grid points (after weights+screening)   ...  76843 (   0.0 sec)
nearest neighbour list constructed           ...    0.0 sec
Grid point re-assignment to atoms done       ...    0.0 sec
Grid point division into batches done        ...    1.8 sec
Reduced shell lists constructed in    2.1 sec

Total number of grid points                  ...    76843
Total number of batches                      ...     1202
Average number of points per batch           ...       63
Average number of grid points per atom       ...    25614
Average number of shells per batch           ...    55.97 (57.70%)
Average number of basis functions per batch  ...   257.76 (59.81%)
Average number of large shells per batch     ...    47.23 (84.39%)
Average number of large basis fcns per batch ...   218.72 (84.85%)
Maximum spatial batch extension              ...  14.80, 15.01, 14.79 au
Average spatial batch extension              ...   0.84,  0.82,  0.85 au

Time for grid setup =    2.166 sec

------------------------------
INITIAL GUESS: MODEL POTENTIAL
------------------------------
Loading Hartree-Fock densities                     ... done
Calculating cut-offs                               ... done
Setting up the integral package                    ... done
Initializing the effective Hamiltonian             ... done
Starting the Coulomb interaction                   ... done (   0.0 sec)
Reading the grid                                   ... done
Mapping shells                                     ... done
Starting the XC term evaluation                    ... done (   1.5 sec)
  promolecular density results
     # of electrons  =     32.000000566
     EX              =    -41.989789416
     EC              =     -1.162849405
     EX+EC           =    -43.152638820
Transforming the Hamiltonian                       ... done (   0.0 sec)
Diagonalizing the Hamiltonian                      ... done (   0.0 sec)
Back transforming the eigenvectors                 ... done (   0.0 sec)
Now organizing SCF variables                       ... done
                      ------------------
                      INITIAL GUESS DONE (   3.9 sec)
                      ------------------
--------------
SCF ITERATIONS
--------------
ITER       Energy         Delta-E        Max-DP      RMS-DP      [F,P]     Damp
               ***  Starting incremental Fock matrix formation  ***
  0   -589.8333388604   0.000000000000 0.02338241  0.00015625  0.1513494 0.7000
  1   -589.8631075693  -0.029768708872 0.00799624  0.00009242  0.0391297 0.7000
                               ***Turning on DIIS***
  2   -589.8664523139  -0.003344744642 0.01300805  0.00013319  0.0315014 0.0000
  3   -589.8811259059  -0.014673591941 0.00840015  0.00009835  0.0307875 0.0000
  4   -589.8811949082  -0.000069002359 0.01066189  0.00004676  0.0346970 0.0000
  5   -589.8831146789  -0.001919770718 0.00186589  0.00001692  0.0203267 0.0000
  6   -589.8835845564  -0.000469877463 0.00077827  0.00000823  0.0102793 0.0000
  7   -589.8837648827  -0.000180326338 0.00047675  0.00000503  0.0061461 0.0000
  8   -589.8838197739  -0.000054891154 0.00024196  0.00000289  0.0022759 0.0000
  9   -589.8838318381  -0.000012064245 0.00021146  0.00000283  0.0008344 0.0000
 10   -589.8838325581  -0.000000719942 0.00006488  0.00000086  0.0006421 0.0000
 11   -589.8838333911  -0.000000833044 0.00002290  0.00000025  0.0001705 0.0000
 12   -589.8838334546  -0.000000063470 0.00001210  0.00000012  0.0000287 0.0000
 13   -589.8838334575  -0.000000002949 0.00002592  0.00000014  0.0000135 0.0000
 14   -589.8838334581  -0.000000000572 0.00002042  0.00000013  0.0000043 0.0000
 15   -589.8838334581  -0.000000000028 0.00002882  0.00000013  0.0000013 0.0000
 16   -589.8838334582  -0.000000000024 0.00001504  0.00000011  0.0000014 0.0000
 17   -589.8838334581   0.000000000007 0.00002213  0.00000016  0.0000001 0.0000
                 **** Energy Check signals convergence ****

               *****************************************************
               *                     SUCCESS                       *
               *           SCF CONVERGED AFTER  18 CYCLES          *
               *****************************************************


----------------
TOTAL SCF ENERGY
----------------

Total Energy       :         -589.88383346 Eh          -16051.55515 eV

Components:
Nuclear Repulsion  :           85.14841937 Eh            2317.00629 eV
Electronic Energy  :         -675.03225283 Eh          -18368.56144 eV
One Electron Energy:         -981.60496190 Eh          -26710.82897 eV
Two Electron Energy:          306.57270906 Eh            8342.26753 eV

Virial components:
Potential Energy   :        -1179.00277190 Eh          -32082.29646 eV
Kinetic Energy     :          589.11893844 Eh           16030.74130 eV
Virial Ratio       :            2.00129837


DFT components:
N(Alpha)           :       16.000000194761 electrons
N(Beta)            :       16.000000194761 electrons
N(Total)           :       32.000000389521 electrons
E(X)               :      -42.095528361915 Eh       
E(C)               :       -1.162384715280 Eh       
E(XC)              :      -43.257913077196 Eh       
DFET-embed. en.    :        0.000000000000 Eh       

---------------
SCF CONVERGENCE
---------------

  Last Energy change         ...   -3.0127e-11  Tolerance :   1.0000e-09
  Last MAX-Density change    ...    2.6039e-05  Tolerance :   1.0000e-08
  Last RMS-Density change    ...    2.2579e-07  Tolerance :   1.0000e-09
  Last DIIS Error            ...    4.8510e-08  Tolerance :   1.0000e-08

             **** THE GBW FILE WAS UPDATED (nocl_pbe.gbw) ****
             **** DENSITY FILE WAS UPDATED (nocl_pbe.scfp.tmp) ****
             **** ENERGY FILE WAS UPDATED (nocl_pbe.en.tmp) ****
----------------------
UHF SPIN CONTAMINATION
----------------------

Warning: in a DFT calculation there is little theoretical justification to 
         calculate <S**2> as in Hartree-Fock theory. We will do it anyways
         but you should keep in mind that the values have only limited relevance

Expectation value of <S**2>     :     0.000000
Ideal value S*(S+1) for S=0.0   :     0.000000
Deviation                       :     0.000000

----------------
ORBITAL ENERGIES
----------------
                 SPIN UP ORBITALS
  NO   OCC          E(Eh)            E(eV) 
   0   1.0000    -100.651162     -2738.8573 
   1   1.0000     -18.917706      -514.7769 
   2   1.0000     -14.200159      -386.4060 
   3   1.0000      -9.174484      -249.6504 
   4   1.0000      -6.995581      -190.3594 
   5   1.0000      -6.989424      -190.1919 
   6   1.0000      -6.986660      -190.1167 
   7   1.0000      -1.207332       -32.8532 
   8   1.0000      -0.757895       -20.6234 
   9   1.0000      -0.639853       -17.4113 
  10   1.0000      -0.516841       -14.0640 
  11   1.0000      -0.514079       -13.9888 
  12   1.0000      -0.482909       -13.1406 
  13   1.0000      -0.291238        -7.9250 
  14   1.0000      -0.280635        -7.6365 
  15   1.0000      -0.273031        -7.4296 
  16   0.0000      -0.183173        -4.9844 
  17   0.0000      -0.120559        -3.2806 
  18   0.0000      -0.007912        -0.2153 
  19   0.0000       0.012993         0.3536 
  20   0.0000       0.018933         0.5152 
  21   0.0000       0.019480         0.5301 
  22   0.0000       0.044777         1.2184 
  23   0.0000       0.046345         1.2611 
  24   0.0000       0.047486         1.2922 
  25   0.0000       0.051748         1.4081 
  26   0.0000       0.055234         1.5030 
  27   0.0000       0.075213         2.0467 
  28   0.0000       0.084595         2.3019 
  29   0.0000       0.095467         2.5978 
  30   0.0000       0.108682         2.9574 
  31   0.0000       0.110886         3.0174 
  32   0.0000       0.123801         3.3688 
  33   0.0000       0.132326         3.6008 
  34   0.0000       0.134352         3.6559 
  35   0.0000       0.144160         3.9228 
  36   0.0000       0.148170         4.0319 
  37   0.0000       0.154093         4.1931 
  38   0.0000       0.155013         4.2181 
  39   0.0000       0.161344         4.3904 
  40   0.0000       0.169774         4.6198 
  41   0.0000       0.177864         4.8399 
  42   0.0000       0.184160         5.0113 
  43   0.0000       0.186263         5.0685 
  44   0.0000       0.214701         5.8423 
  45   0.0000       0.215802         5.8723 
  46   0.0000       0.225750         6.1430 
  47   0.0000       0.227579         6.1927 
  48   0.0000       0.247483         6.7344 
  49   0.0000       0.248917         6.7734 
  50   0.0000       0.264304         7.1921 
  51   0.0000       0.271330         7.3833 
  52   0.0000       0.273871         7.4524 
  53   0.0000       0.285759         7.7759 
  54   0.0000       0.287922         7.8348 
  55   0.0000       0.299839         8.1590 
  56   0.0000       0.306560         8.3419 
  57   0.0000       0.319864         8.7039 
  58   0.0000       0.320549         8.7226 
  59   0.0000       0.325577         8.8594 
  60   0.0000       0.341363         9.2890 
  61   0.0000       0.350924         9.5491 
  62   0.0000       0.359058         9.7705 
  63   0.0000       0.360048         9.7974 
  64   0.0000       0.374086        10.1794 
  65   0.0000       0.386733        10.5235 
  66   0.0000       0.388018        10.5585 
  67   0.0000       0.394213        10.7271 
  68   0.0000       0.402612        10.9556 
  69   0.0000       0.407881        11.0990 
  70   0.0000       0.417286        11.3549 
  71   0.0000       0.419290        11.4095 
  72   0.0000       0.424949        11.5635 
  73   0.0000       0.432623        11.7723 
  74   0.0000       0.436121        11.8675 
  75   0.0000       0.447041        12.1646 
  76   0.0000       0.455364        12.3911 
  77   0.0000       0.463811        12.6209 
  78   0.0000       0.468391        12.7456 
  79   0.0000       0.488503        13.2928 
  80   0.0000       0.491249        13.3676 
  81   0.0000       0.494648        13.4601 
  82   0.0000       0.510092        13.8803 
  83   0.0000       0.512109        13.9352 
  84   0.0000       0.536758        14.6059 
  85   0.0000       0.548250        14.9186 
  86   0.0000       0.557280        15.1644 
  87   0.0000       0.567564        15.4442 
  88   0.0000       0.577077        15.7031 
  89   0.0000       0.588828        16.0228 
  90   0.0000       0.599065        16.3014 
  91   0.0000       0.614691        16.7266 
  92   0.0000       0.619091        16.8463 
  93   0.0000       0.620650        16.8888 
  94   0.0000       0.627990        17.0885 
  95   0.0000       0.642848        17.4928 
  96   0.0000       0.645425        17.5629 
  97   0.0000       0.649207        17.6658 
  98   0.0000       0.654897        17.8206 
  99   0.0000       0.655188        17.8286 
 100   0.0000       0.671366        18.2688 
 101   0.0000       0.673319        18.3219 
 102   0.0000       0.686441        18.6790 
 103   0.0000       0.695953        18.9378 
 104   0.0000       0.699363        19.0306 
 105   0.0000       0.704672        19.1751 
 106   0.0000       0.723728        19.6936 
 107   0.0000       0.736655        20.0454 
 108   0.0000       0.756315        20.5804 
 109   0.0000       0.772250        21.0140 
 110   0.0000       0.777387        21.1538 
 111   0.0000       0.778951        21.1963 
 112   0.0000       0.798435        21.7265 
 113   0.0000       0.799305        21.7502 
 114   0.0000       0.811859        22.0918 
 115   0.0000       0.819873        22.3099 
 116   0.0000       0.828424        22.5426 
 117   0.0000       0.829381        22.5686 
 118   0.0000       0.833110        22.6701 
 119   0.0000       0.836865        22.7723 
 120   0.0000       0.857445        23.3323 
 121   0.0000       0.861542        23.4438 
 122   0.0000       0.874818        23.8050 
 123   0.0000       0.882029        24.0012 
 124   0.0000       0.897328        24.4175 
 125   0.0000       0.901364        24.5274 
 126   0.0000       0.903799        24.5936 
 127   0.0000       0.909875        24.7589 
 128   0.0000       0.916566        24.9410 
 129   0.0000       0.917559        24.9680 
 130   0.0000       0.927696        25.2439 
 131   0.0000       0.930738        25.3267 
 132   0.0000       0.933373        25.3984 
 133   0.0000       0.940663        25.5967 
 134   0.0000       0.949437        25.8355 
 135   0.0000       0.960714        26.1424 
 136   0.0000       0.963809        26.2266 
 137   0.0000       1.002807        27.2878 
 138   0.0000       1.005850        27.3706 
 139   0.0000       1.012772        27.5589 
 140   0.0000       1.021968        27.8092 
 141   0.0000       1.024757        27.8851 
 142   0.0000       1.033817        28.1316 
 143   0.0000       1.043553        28.3965 
 144   0.0000       1.048683        28.5361 
 145   0.0000       1.065521        28.9943 
 146   0.0000       1.088152        29.6101 
 147   0.0000       1.093307        29.7504 
 148   0.0000       1.099048        29.9066 
 149   0.0000       1.116416        30.3792 
 150   0.0000       1.124822        30.6080 
 151   0.0000       1.135391        30.8955 
 152   0.0000       1.138534        30.9811 
 153   0.0000       1.161287        31.6002 
 154   0.0000       1.164089        31.6765 
 155   0.0000       1.171680        31.8830 
 156   0.0000       1.178117        32.0582 
 157   0.0000       1.208107        32.8743 
 158   0.0000       1.222371        33.2624 
 159   0.0000       1.223157        33.2838 
 160   0.0000       1.234935        33.6043 
 161   0.0000       1.242537        33.8112 
 162   0.0000       1.247182        33.9375 
 163   0.0000       1.271774        34.6067 
 164   0.0000       1.272468        34.6256 
 165   0.0000       1.303203        35.4620 
 166   0.0000       1.313653        35.7463 
 167   0.0000       1.340551        36.4782 
 168   0.0000       1.361812        37.0568 
 169   0.0000       1.433335        39.0030 
 170   0.0000       1.436990        39.1025 
 171   0.0000       1.482666        40.3454 
 172   0.0000       1.496873        40.7320 
 173   0.0000       1.546924        42.0939 
 174   0.0000       1.551410        42.2160 
 175   0.0000       1.566148        42.6170 
 176   0.0000       1.574763        42.8515 
 177   0.0000       1.594969        43.4013 
 178   0.0000       1.662226        45.2315 
 179   0.0000       1.664673        45.2980 
 180   0.0000       1.715047        46.6688 
 181   0.0000       1.716106        46.6976 
 182   0.0000       1.763468        47.9864 
 183   0.0000       1.768718        48.1293 
 184   0.0000       1.792333        48.7719 
 185   0.0000       1.822557        49.5943 
 186   0.0000       1.834752        49.9261 
 187   0.0000       1.866278        50.7840 
 188   0.0000       1.892267        51.4912 
 189   0.0000       1.904813        51.8326 
 190   0.0000       1.941723        52.8370 
 191   0.0000       1.972692        53.6797 
 192   0.0000       2.014522        54.8179 
 193   0.0000       2.045030        55.6481 
 194   0.0000       2.051658        55.8285 
 195   0.0000       2.095710        57.0272 
 196   0.0000       2.144653        58.3590 
 197   0.0000       2.146784        58.4170 
 198   0.0000       2.183972        59.4289 
 199   0.0000       2.214755        60.2665 
 200   0.0000       2.234663        60.8083 
 201   0.0000       2.282374        62.1066 
 202   0.0000       2.334814        63.5335 
 203   0.0000       2.364510        64.3416 
 204   0.0000       2.370783        64.5123 
 205   0.0000       2.393234        65.1232 
 206   0.0000       2.421044        65.8799 
 207   0.0000       2.471872        67.2630 
 208   0.0000       2.503221        68.1161 
 209   0.0000       2.525185        68.7138 
 210   0.0000       2.684370        73.0454 
 211   0.0000       2.745090        74.6977 
 212   0.0000       2.805722        76.3476 
 213   0.0000       2.831015        77.0358 
 214   0.0000       2.861276        77.8593 
 215   0.0000       2.880821        78.3911 
 216   0.0000       2.889816        78.6359 
 217   0.0000       2.933849        79.8341 
 218   0.0000       2.966721        80.7286 
 219   0.0000       2.983774        81.1926 
 220   0.0000       3.015028        82.0431 
 221   0.0000       3.103904        84.4615 
 222   0.0000       3.118359        84.8549 
 223   0.0000       3.167987        86.2053 
 224   0.0000       3.202151        87.1350 
 225   0.0000       3.217778        87.5602 
 226   0.0000       3.342039        90.9415 
 227   0.0000       3.368274        91.6554 
 228   0.0000       3.402165        92.5776 
 229   0.0000       3.657569        99.5275 
 230   0.0000       3.683993       100.2465 
 231   0.0000       3.685238       100.2804 
 232   0.0000       3.722410       101.2919 
 233   0.0000       3.750242       102.0493 
 234   0.0000       3.812962       103.7560 
 235   0.0000       3.886566       105.7588 
 236   0.0000       3.894034       105.9620 
 237   0.0000       3.956204       107.6538 
 238   0.0000       3.987613       108.5085 
 239   0.0000       4.038695       109.8985 
 240   0.0000       4.070582       110.7662 
 241   0.0000       4.110743       111.8590 
 242   0.0000       4.122900       112.1898 
 243   0.0000       4.139376       112.6381 
 244   0.0000       4.292360       116.8011 
 245   0.0000       4.308605       117.2431 
 246   0.0000       4.380094       119.1884 
 247   0.0000       4.422834       120.3514 
 248   0.0000       4.475914       121.7958 
 249   0.0000       4.537608       123.4746 
 250   0.0000       4.572504       124.4242 
 251   0.0000       4.581181       124.6603 
 252   0.0000       4.686379       127.5228 
 253   0.0000       4.795321       130.4873 
 254   0.0000       4.847434       131.9054 
 255   0.0000       4.884975       132.9269 
 256   0.0000       4.902638       133.4076 
 257   0.0000       4.962015       135.0233 
 258   0.0000       5.043474       137.2399 
 259   0.0000       5.076166       138.1295 
 260   0.0000       5.135860       139.7538 
 261   0.0000       5.192283       141.2892 
 262   0.0000       5.248240       142.8119 
 263   0.0000       5.299471       144.2059 
 264   0.0000       5.318087       144.7125 
 265   0.0000       5.364832       145.9845 
 266   0.0000       5.412326       147.2769 
 267   0.0000       5.605050       152.5212 
 268   0.0000       5.645872       153.6320 
 269   0.0000       5.678146       154.5102 
 270   0.0000       5.685732       154.7166 
 271   0.0000       5.686737       154.7440 
 272   0.0000       5.687686       154.7698 
 273   0.0000       5.706264       155.2753 
 274   0.0000       5.751310       156.5011 
 275   0.0000       5.759121       156.7136 
 276   0.0000       5.814994       158.2340 
 277   0.0000       5.816970       158.2878 
 278   0.0000       5.844619       159.0402 
 279   0.0000       5.869866       159.7272 
 280   0.0000       5.874109       159.8426 
 281   0.0000       5.908216       160.7707 
 282   0.0000       5.994670       163.1233 
 283   0.0000       6.009811       163.5353 
 284   0.0000       6.072288       165.2353 
 285   0.0000       6.108811       166.2292 
 286   0.0000       6.110931       166.2869 
 287   0.0000       6.180946       168.1921 
 288   0.0000       6.391945       173.9337 
 289   0.0000       6.424759       174.8266 
 290   0.0000       6.550822       178.2569 
 291   0.0000       6.579975       179.0502 
 292   0.0000       6.648863       180.9248 
 293   0.0000       6.671608       181.5437 
 294   0.0000       6.880199       187.2197 
 295   0.0000       6.922658       188.3751 
 296   0.0000       6.923519       188.3985 
 297   0.0000       6.950447       189.1313 
 298   0.0000       7.205476       196.0710 
 299   0.0000       7.404634       201.4903 
 300   0.0000       7.461895       203.0485 
 301   0.0000       7.626828       207.5365 
 302   0.0000       7.744577       210.7406 
 303   0.0000       7.835834       213.2239 
 304   0.0000       8.237244       224.1468 
 305   0.0000       8.319049       226.3728 
 306   0.0000       8.452500       230.0042 
 307   0.0000       8.929997       242.9976 
 308   0.0000       9.080374       247.0895 
 309   0.0000       9.111297       247.9310 
 310   0.0000       9.114048       248.0059 
 311   0.0000       9.133878       248.5455 
 312   0.0000       9.151322       249.0201 
 313   0.0000       9.198112       250.2933 
 314   0.0000       9.222241       250.9499 
 315   0.0000       9.258254       251.9299 
 316   0.0000       9.346100       254.3203 
 317   0.0000       9.402662       255.8594 
 318   0.0000       9.475892       257.8521 
 319   0.0000       9.596952       261.1464 
 320   0.0000       9.813496       267.0388 
 321   0.0000      10.205340       277.7014 
 322   0.0000      10.278903       279.7032 
 323   0.0000      10.355266       281.7811 
 324   0.0000      10.692641       290.9615 
 325   0.0000      10.891490       296.3725 
 326   0.0000      10.935907       297.5812 
 327   0.0000      10.957554       298.1702 
 328   0.0000      10.997746       299.2639 
 329   0.0000      11.016441       299.7726 
 330   0.0000      11.076451       301.4056 
 331   0.0000      11.123533       302.6867 
 332   0.0000      11.139050       303.1090 
 333   0.0000      11.141029       303.1628 
 334   0.0000      11.272061       306.7284 
 335   0.0000      11.274645       306.7987 
 336   0.0000      11.346549       308.7553 
 337   0.0000      11.352040       308.9047 
 338   0.0000      11.493298       312.7485 
 339   0.0000      11.744593       319.5866 
 340   0.0000      11.812209       321.4265 
 341   0.0000      11.924084       324.4708 
 342   0.0000      11.924288       324.4764 
 343   0.0000      11.942413       324.9696 
 344   0.0000      12.037819       327.5657 
 345   0.0000      12.290375       334.4381 
 346   0.0000      12.297208       334.6240 
 347   0.0000      12.610923       343.1606 
 348   0.0000      12.651602       344.2676 
 349   0.0000      12.801042       348.3341 
 350   0.0000      12.841198       349.4268 
 351   0.0000      12.921409       351.6094 
 352   0.0000      12.923616       351.6695 
 353   0.0000      12.979327       353.1855 
 354   0.0000      12.986482       353.3801 
 355   0.0000      13.009901       354.0174 
 356   0.0000      13.037821       354.7772 
 357   0.0000      13.064907       355.5142 
 358   0.0000      13.102205       356.5291 
 359   0.0000      13.150868       357.8533 
 360   0.0000      13.172865       358.4519 
 361   0.0000      13.189190       358.8961 
 362   0.0000      13.639278       371.1436 
 363   0.0000      13.648451       371.3932 
 364   0.0000      14.071802       382.9132 
 365   0.0000      14.153280       385.1303 
 366   0.0000      14.251388       387.8000 
 367   0.0000      14.349242       390.4627 
 368   0.0000      14.686184       399.6314 
 369   0.0000      14.787087       402.3771 
 370   0.0000      14.961940       407.1351 
 371   0.0000      15.044794       409.3897 
 372   0.0000      15.192760       413.4160 
 373   0.0000      15.430193       419.8769 
 374   0.0000      15.584384       424.0726 
 375   0.0000      16.041565       436.5132 
 376   0.0000      16.049494       436.7289 
 377   0.0000      16.071903       437.3387 
 378   0.0000      16.247928       442.1286 
 379   0.0000      16.363321       445.2686 
 380   0.0000      16.550354       450.3580 
 381   0.0000      16.816405       457.5976 
 382   0.0000      16.868848       459.0247 
 383   0.0000      16.871761       459.1040 
 384   0.0000      16.968361       461.7326 
 385   0.0000      17.139450       466.3881 
 386   0.0000      17.165809       467.1054 
 387   0.0000      17.682189       481.1568 
 388   0.0000      17.685712       481.2527 
 389   0.0000      17.735377       482.6041 
 390   0.0000      17.788522       484.0503 
 391   0.0000      17.883720       486.6408 
 392   0.0000      17.916573       487.5347 
 393   0.0000      18.237203       496.2595 
 394   0.0000      18.642763       507.2954 
 395   0.0000      18.689187       508.5586 
 396   0.0000      18.768995       510.7303 
 397   0.0000      18.884325       513.8686 
 398   0.0000      18.973174       516.2863 
 399   0.0000      20.563495       559.5611 
 400   0.0000      22.930853       623.9802 
 401   0.0000      22.984837       625.4492 
 402   0.0000      23.902980       650.4331 
 403   0.0000      24.266962       660.3376 
 404   0.0000      24.395456       663.8341 
 405   0.0000      25.883982       704.3390 
 406   0.0000      26.146154       711.4730 
 407   0.0000      26.502084       721.1584 
 408   0.0000      28.806224       783.8572 
 409   0.0000      31.197273       848.9210 
 410   0.0000      31.796439       865.2251 
 411   0.0000      31.957327       869.6031 
 412   0.0000      34.285935       932.9677 
 413   0.0000      39.186466      1066.3180 
 414   0.0000      47.552555      1293.9708 
 415   0.0000      47.618029      1295.7524 
 416   0.0000      47.866749      1302.5205 
 417   0.0000      47.997055      1306.0663 
 418   0.0000      49.235053      1339.7539 
 419   0.0000      65.842278      1791.6595 
 420   0.0000      65.844508      1791.7201 
 421   0.0000      65.871076      1792.4431 
 422   0.0000      65.909245      1793.4817 
 423   0.0000      66.158801      1800.2725 
 424   0.0000      66.468410      1808.6974 
 425   0.0000      66.506926      1809.7455 
 426   0.0000      67.275465      1830.6585 
 427   0.0000      67.351635      1832.7312 
 428   0.0000      69.015823      1878.0160 
 429   0.0000     105.668236      2875.3789 
 430   0.0000     143.659753      3909.1806 

                 SPIN DOWN ORBITALS
  NO   OCC          E(Eh)            E(eV) 
   0   1.0000    -100.651162     -2738.8573 
   1   1.0000     -18.917706      -514.7769 
   2   1.0000     -14.200159      -386.4060 
   3   1.0000      -9.174484      -249.6504 
   4   1.0000      -6.995581      -190.3594 
   5   1.0000      -6.989424      -190.1919 
   6   1.0000      -6.986660      -190.1167 
   7   1.0000      -1.207332       -32.8532 
   8   1.0000      -0.757895       -20.6234 
   9   1.0000      -0.639853       -17.4113 
  10   1.0000      -0.516841       -14.0640 
  11   1.0000      -0.514079       -13.9888 
  12   1.0000      -0.482909       -13.1406 
  13   1.0000      -0.291238        -7.9250 
  14   1.0000      -0.280635        -7.6365 
  15   1.0000      -0.273031        -7.4296 
  16   0.0000      -0.183173        -4.9844 
  17   0.0000      -0.120559        -3.2806 
  18   0.0000      -0.007912        -0.2153 
  19   0.0000       0.012993         0.3536 
  20   0.0000       0.018933         0.5152 
  21   0.0000       0.019480         0.5301 
  22   0.0000       0.044777         1.2184 
  23   0.0000       0.046345         1.2611 
  24   0.0000       0.047486         1.2922 
  25   0.0000       0.051748         1.4081 
  26   0.0000       0.055234         1.5030 
  27   0.0000       0.075213         2.0467 
  28   0.0000       0.084595         2.3019 
  29   0.0000       0.095467         2.5978 
  30   0.0000       0.108682         2.9574 
  31   0.0000       0.110886         3.0174 
  32   0.0000       0.123801         3.3688 
  33   0.0000       0.132326         3.6008 
  34   0.0000       0.134352         3.6559 
  35   0.0000       0.144160         3.9228 
  36   0.0000       0.148170         4.0319 
  37   0.0000       0.154093         4.1931 
  38   0.0000       0.155013         4.2181 
  39   0.0000       0.161344         4.3904 
  40   0.0000       0.169774         4.6198 
  41   0.0000       0.177864         4.8399 
  42   0.0000       0.184160         5.0113 
  43   0.0000       0.186263         5.0685 
  44   0.0000       0.214701         5.8423 
  45   0.0000       0.215802         5.8723 
  46   0.0000       0.225750         6.1430 
  47   0.0000       0.227579         6.1927 
  48   0.0000       0.247483         6.7344 
  49   0.0000       0.248917         6.7734 
  50   0.0000       0.264304         7.1921 
  51   0.0000       0.271330         7.3833 
  52   0.0000       0.273871         7.4524 
  53   0.0000       0.285759         7.7759 
  54   0.0000       0.287922         7.8348 
  55   0.0000       0.299839         8.1590 
  56   0.0000       0.306560         8.3419 
  57   0.0000       0.319864         8.7039 
  58   0.0000       0.320549         8.7226 
  59   0.0000       0.325577         8.8594 
  60   0.0000       0.341363         9.2890 
  61   0.0000       0.350924         9.5491 
  62   0.0000       0.359058         9.7705 
  63   0.0000       0.360048         9.7974 
  64   0.0000       0.374086        10.1794 
  65   0.0000       0.386733        10.5235 
  66   0.0000       0.388018        10.5585 
  67   0.0000       0.394213        10.7271 
  68   0.0000       0.402612        10.9556 
  69   0.0000       0.407881        11.0990 
  70   0.0000       0.417286        11.3549 
  71   0.0000       0.419290        11.4095 
  72   0.0000       0.424949        11.5635 
  73   0.0000       0.432623        11.7723 
  74   0.0000       0.436121        11.8675 
  75   0.0000       0.447041        12.1646 
  76   0.0000       0.455364        12.3911 
  77   0.0000       0.463811        12.6209 
  78   0.0000       0.468391        12.7456 
  79   0.0000       0.488503        13.2928 
  80   0.0000       0.491249        13.3676 
  81   0.0000       0.494648        13.4601 
  82   0.0000       0.510092        13.8803 
  83   0.0000       0.512109        13.9352 
  84   0.0000       0.536758        14.6059 
  85   0.0000       0.548250        14.9186 
  86   0.0000       0.557280        15.1644 
  87   0.0000       0.567564        15.4442 
  88   0.0000       0.577077        15.7031 
  89   0.0000       0.588828        16.0228 
  90   0.0000       0.599065        16.3014 
  91   0.0000       0.614691        16.7266 
  92   0.0000       0.619091        16.8463 
  93   0.0000       0.620650        16.8888 
  94   0.0000       0.627990        17.0885 
  95   0.0000       0.642848        17.4928 
  96   0.0000       0.645425        17.5629 
  97   0.0000       0.649207        17.6658 
  98   0.0000       0.654897        17.8206 
  99   0.0000       0.655188        17.8286 
 100   0.0000       0.671366        18.2688 
 101   0.0000       0.673319        18.3219 
 102   0.0000       0.686441        18.6790 
 103   0.0000       0.695953        18.9378 
 104   0.0000       0.699363        19.0306 
 105   0.0000       0.704672        19.1751 
 106   0.0000       0.723728        19.6936 
 107   0.0000       0.736655        20.0454 
 108   0.0000       0.756315        20.5804 
 109   0.0000       0.772250        21.0140 
 110   0.0000       0.777387        21.1538 
 111   0.0000       0.778951        21.1963 
 112   0.0000       0.798435        21.7265 
 113   0.0000       0.799305        21.7502 
 114   0.0000       0.811859        22.0918 
 115   0.0000       0.819873        22.3099 
 116   0.0000       0.828424        22.5426 
 117   0.0000       0.829381        22.5686 
 118   0.0000       0.833110        22.6701 
 119   0.0000       0.836865        22.7723 
 120   0.0000       0.857445        23.3323 
 121   0.0000       0.861542        23.4438 
 122   0.0000       0.874818        23.8050 
 123   0.0000       0.882029        24.0012 
 124   0.0000       0.897328        24.4175 
 125   0.0000       0.901364        24.5274 
 126   0.0000       0.903799        24.5936 
 127   0.0000       0.909875        24.7589 
 128   0.0000       0.916566        24.9410 
 129   0.0000       0.917559        24.9680 
 130   0.0000       0.927696        25.2439 
 131   0.0000       0.930738        25.3267 
 132   0.0000       0.933373        25.3984 
 133   0.0000       0.940663        25.5967 
 134   0.0000       0.949437        25.8355 
 135   0.0000       0.960714        26.1424 
 136   0.0000       0.963809        26.2266 
 137   0.0000       1.002807        27.2878 
 138   0.0000       1.005850        27.3706 
 139   0.0000       1.012772        27.5589 
 140   0.0000       1.021968        27.8092 
 141   0.0000       1.024757        27.8851 
 142   0.0000       1.033817        28.1316 
 143   0.0000       1.043553        28.3965 
 144   0.0000       1.048683        28.5361 
 145   0.0000       1.065521        28.9943 
 146   0.0000       1.088152        29.6101 
 147   0.0000       1.093307        29.7504 
 148   0.0000       1.099048        29.9066 
 149   0.0000       1.116416        30.3792 
 150   0.0000       1.124822        30.6080 
 151   0.0000       1.135391        30.8955 
 152   0.0000       1.138534        30.9811 
 153   0.0000       1.161287        31.6002 
 154   0.0000       1.164089        31.6765 
 155   0.0000       1.171680        31.8830 
 156   0.0000       1.178117        32.0582 
 157   0.0000       1.208107        32.8743 
 158   0.0000       1.222371        33.2624 
 159   0.0000       1.223157        33.2838 
 160   0.0000       1.234935        33.6043 
 161   0.0000       1.242537        33.8112 
 162   0.0000       1.247182        33.9375 
 163   0.0000       1.271774        34.6067 
 164   0.0000       1.272468        34.6256 
 165   0.0000       1.303203        35.4620 
 166   0.0000       1.313653        35.7463 
 167   0.0000       1.340551        36.4782 
 168   0.0000       1.361812        37.0568 
 169   0.0000       1.433335        39.0030 
 170   0.0000       1.436990        39.1025 
 171   0.0000       1.482666        40.3454 
 172   0.0000       1.496873        40.7320 
 173   0.0000       1.546924        42.0939 
 174   0.0000       1.551410        42.2160 
 175   0.0000       1.566148        42.6170 
 176   0.0000       1.574763        42.8515 
 177   0.0000       1.594969        43.4013 
 178   0.0000       1.662226        45.2315 
 179   0.0000       1.664673        45.2980 
 180   0.0000       1.715047        46.6688 
 181   0.0000       1.716106        46.6976 
 182   0.0000       1.763468        47.9864 
 183   0.0000       1.768718        48.1293 
 184   0.0000       1.792333        48.7719 
 185   0.0000       1.822557        49.5943 
 186   0.0000       1.834752        49.9261 
 187   0.0000       1.866278        50.7840 
 188   0.0000       1.892267        51.4912 
 189   0.0000       1.904813        51.8326 
 190   0.0000       1.941723        52.8370 
 191   0.0000       1.972692        53.6797 
 192   0.0000       2.014522        54.8179 
 193   0.0000       2.045030        55.6481 
 194   0.0000       2.051658        55.8285 
 195   0.0000       2.095710        57.0272 
 196   0.0000       2.144653        58.3590 
 197   0.0000       2.146784        58.4170 
 198   0.0000       2.183972        59.4289 
 199   0.0000       2.214755        60.2665 
 200   0.0000       2.234663        60.8083 
 201   0.0000       2.282374        62.1066 
 202   0.0000       2.334814        63.5335 
 203   0.0000       2.364510        64.3416 
 204   0.0000       2.370783        64.5123 
 205   0.0000       2.393234        65.1232 
 206   0.0000       2.421044        65.8799 
 207   0.0000       2.471872        67.2630 
 208   0.0000       2.503221        68.1161 
 209   0.0000       2.525185        68.7138 
 210   0.0000       2.684370        73.0454 
 211   0.0000       2.745090        74.6977 
 212   0.0000       2.805722        76.3476 
 213   0.0000       2.831015        77.0358 
 214   0.0000       2.861276        77.8593 
 215   0.0000       2.880821        78.3911 
 216   0.0000       2.889816        78.6359 
 217   0.0000       2.933849        79.8341 
 218   0.0000       2.966721        80.7286 
 219   0.0000       2.983774        81.1926 
 220   0.0000       3.015028        82.0431 
 221   0.0000       3.103904        84.4615 
 222   0.0000       3.118359        84.8549 
 223   0.0000       3.167987        86.2053 
 224   0.0000       3.202151        87.1350 
 225   0.0000       3.217778        87.5602 
 226   0.0000       3.342039        90.9415 
 227   0.0000       3.368274        91.6554 
 228   0.0000       3.402165        92.5776 
 229   0.0000       3.657569        99.5275 
 230   0.0000       3.683993       100.2465 
 231   0.0000       3.685238       100.2804 
 232   0.0000       3.722410       101.2919 
 233   0.0000       3.750242       102.0493 
 234   0.0000       3.812962       103.7560 
 235   0.0000       3.886566       105.7588 
 236   0.0000       3.894034       105.9620 
 237   0.0000       3.956204       107.6538 
 238   0.0000       3.987613       108.5085 
 239   0.0000       4.038695       109.8985 
 240   0.0000       4.070582       110.7662 
 241   0.0000       4.110743       111.8590 
 242   0.0000       4.122900       112.1898 
 243   0.0000       4.139376       112.6381 
 244   0.0000       4.292360       116.8011 
 245   0.0000       4.308605       117.2431 
 246   0.0000       4.380094       119.1884 
 247   0.0000       4.422834       120.3514 
 248   0.0000       4.475914       121.7958 
 249   0.0000       4.537608       123.4746 
 250   0.0000       4.572504       124.4242 
 251   0.0000       4.581181       124.6603 
 252   0.0000       4.686379       127.5228 
 253   0.0000       4.795321       130.4873 
 254   0.0000       4.847434       131.9054 
 255   0.0000       4.884975       132.9269 
 256   0.0000       4.902638       133.4076 
 257   0.0000       4.962015       135.0233 
 258   0.0000       5.043474       137.2399 
 259   0.0000       5.076166       138.1295 
 260   0.0000       5.135860       139.7538 
 261   0.0000       5.192283       141.2892 
 262   0.0000       5.248240       142.8119 
 263   0.0000       5.299471       144.2059 
 264   0.0000       5.318087       144.7125 
 265   0.0000       5.364832       145.9845 
 266   0.0000       5.412326       147.2769 
 267   0.0000       5.605050       152.5212 
 268   0.0000       5.645872       153.6320 
 269   0.0000       5.678146       154.5102 
 270   0.0000       5.685732       154.7166 
 271   0.0000       5.686737       154.7440 
 272   0.0000       5.687686       154.7698 
 273   0.0000       5.706264       155.2753 
 274   0.0000       5.751310       156.5011 
 275   0.0000       5.759121       156.7136 
 276   0.0000       5.814994       158.2340 
 277   0.0000       5.816970       158.2878 
 278   0.0000       5.844619       159.0402 
 279   0.0000       5.869866       159.7272 
 280   0.0000       5.874109       159.8426 
 281   0.0000       5.908216       160.7707 
 282   0.0000       5.994670       163.1233 
 283   0.0000       6.009811       163.5353 
 284   0.0000       6.072288       165.2353 
 285   0.0000       6.108811       166.2292 
 286   0.0000       6.110931       166.2869 
 287   0.0000       6.180946       168.1921 
 288   0.0000       6.391945       173.9337 
 289   0.0000       6.424759       174.8266 
 290   0.0000       6.550822       178.2569 
 291   0.0000       6.579975       179.0502 
 292   0.0000       6.648863       180.9248 
 293   0.0000       6.671608       181.5437 
 294   0.0000       6.880199       187.2197 
 295   0.0000       6.922658       188.3751 
 296   0.0000       6.923519       188.3985 
 297   0.0000       6.950447       189.1313 
 298   0.0000       7.205476       196.0710 
 299   0.0000       7.404634       201.4903 
 300   0.0000       7.461895       203.0485 
 301   0.0000       7.626828       207.5365 
 302   0.0000       7.744577       210.7406 
 303   0.0000       7.835834       213.2239 
 304   0.0000       8.237244       224.1468 
 305   0.0000       8.319049       226.3728 
 306   0.0000       8.452500       230.0042 
 307   0.0000       8.929997       242.9976 
 308   0.0000       9.080374       247.0895 
 309   0.0000       9.111297       247.9310 
 310   0.0000       9.114048       248.0059 
 311   0.0000       9.133878       248.5455 
 312   0.0000       9.151322       249.0201 
 313   0.0000       9.198112       250.2933 
 314   0.0000       9.222241       250.9499 
 315   0.0000       9.258254       251.9299 
 316   0.0000       9.346100       254.3203 
 317   0.0000       9.402662       255.8594 
 318   0.0000       9.475892       257.8521 
 319   0.0000       9.596952       261.1464 
 320   0.0000       9.813496       267.0388 
 321   0.0000      10.205340       277.7014 
 322   0.0000      10.278903       279.7032 
 323   0.0000      10.355266       281.7811 
 324   0.0000      10.692641       290.9615 
 325   0.0000      10.891490       296.3725 
 326   0.0000      10.935907       297.5812 
 327   0.0000      10.957554       298.1702 
 328   0.0000      10.997746       299.2639 
 329   0.0000      11.016441       299.7726 
 330   0.0000      11.076451       301.4056 
 331   0.0000      11.123533       302.6867 
 332   0.0000      11.139050       303.1090 
 333   0.0000      11.141029       303.1628 
 334   0.0000      11.272061       306.7284 
 335   0.0000      11.274645       306.7987 
 336   0.0000      11.346549       308.7553 
 337   0.0000      11.352040       308.9047 
 338   0.0000      11.493298       312.7485 
 339   0.0000      11.744593       319.5866 
 340   0.0000      11.812209       321.4265 
 341   0.0000      11.924084       324.4708 
 342   0.0000      11.924288       324.4764 
 343   0.0000      11.942413       324.9696 
 344   0.0000      12.037819       327.5657 
 345   0.0000      12.290375       334.4381 
 346   0.0000      12.297208       334.6240 
 347   0.0000      12.610923       343.1606 
 348   0.0000      12.651602       344.2676 
 349   0.0000      12.801042       348.3341 
 350   0.0000      12.841198       349.4268 
 351   0.0000      12.921409       351.6094 
 352   0.0000      12.923616       351.6695 
 353   0.0000      12.979327       353.1855 
 354   0.0000      12.986482       353.3801 
 355   0.0000      13.009901       354.0174 
 356   0.0000      13.037821       354.7772 
 357   0.0000      13.064907       355.5142 
 358   0.0000      13.102205       356.5291 
 359   0.0000      13.150868       357.8533 
 360   0.0000      13.172865       358.4519 
 361   0.0000      13.189190       358.8961 
 362   0.0000      13.639278       371.1436 
 363   0.0000      13.648451       371.3932 
 364   0.0000      14.071802       382.9132 
 365   0.0000      14.153280       385.1303 
 366   0.0000      14.251388       387.8000 
 367   0.0000      14.349242       390.4627 
 368   0.0000      14.686184       399.6314 
 369   0.0000      14.787087       402.3771 
 370   0.0000      14.961940       407.1351 
 371   0.0000      15.044794       409.3897 
 372   0.0000      15.192760       413.4160 
 373   0.0000      15.430193       419.8769 
 374   0.0000      15.584384       424.0726 
 375   0.0000      16.041565       436.5132 
 376   0.0000      16.049494       436.7289 
 377   0.0000      16.071903       437.3387 
 378   0.0000      16.247928       442.1286 
 379   0.0000      16.363321       445.2686 
 380   0.0000      16.550354       450.3580 
 381   0.0000      16.816405       457.5976 
 382   0.0000      16.868848       459.0247 
 383   0.0000      16.871761       459.1040 
 384   0.0000      16.968361       461.7326 
 385   0.0000      17.139450       466.3881 
 386   0.0000      17.165809       467.1054 
 387   0.0000      17.682189       481.1568 
 388   0.0000      17.685712       481.2527 
 389   0.0000      17.735377       482.6041 
 390   0.0000      17.788522       484.0503 
 391   0.0000      17.883720       486.6408 
 392   0.0000      17.916573       487.5347 
 393   0.0000      18.237203       496.2595 
 394   0.0000      18.642763       507.2954 
 395   0.0000      18.689187       508.5586 
 396   0.0000      18.768995       510.7303 
 397   0.0000      18.884325       513.8686 
 398   0.0000      18.973174       516.2863 
 399   0.0000      20.563495       559.5611 
 400   0.0000      22.930853       623.9802 
 401   0.0000      22.984837       625.4492 
 402   0.0000      23.902980       650.4331 
 403   0.0000      24.266962       660.3376 
 404   0.0000      24.395456       663.8341 
 405   0.0000      25.883982       704.3390 
 406   0.0000      26.146154       711.4730 
 407   0.0000      26.502084       721.1584 
 408   0.0000      28.806224       783.8572 
 409   0.0000      31.197273       848.9210 
 410   0.0000      31.796439       865.2251 
 411   0.0000      31.957327       869.6031 
 412   0.0000      34.285935       932.9677 
 413   0.0000      39.186466      1066.3180 
 414   0.0000      47.552555      1293.9708 
 415   0.0000      47.618029      1295.7524 
 416   0.0000      47.866749      1302.5205 
 417   0.0000      47.997055      1306.0663 
 418   0.0000      49.235053      1339.7539 
 419   0.0000      65.842278      1791.6595 
 420   0.0000      65.844508      1791.7201 
 421   0.0000      65.871076      1792.4431 
 422   0.0000      65.909245      1793.4817 
 423   0.0000      66.158801      1800.2725 
 424   0.0000      66.468410      1808.6974 
 425   0.0000      66.506926      1809.7455 
 426   0.0000      67.275465      1830.6585 
 427   0.0000      67.351635      1832.7312 
 428   0.0000      69.015823      1878.0160 
 429   0.0000     105.668236      2875.3789 
 430   0.0000     143.659753      3909.1806 

                    ********************************
                    * MULLIKEN POPULATION ANALYSIS *
                    ********************************

--------------------------------------------
MULLIKEN ATOMIC CHARGES AND SPIN POPULATIONS
--------------------------------------------
   0 Cl:   -0.272177   -0.000000
   1 N :    0.285075    0.000000
   2 O :   -0.012898   -0.000000
Sum of atomic charges         :    0.0000000
Sum of atomic spin populations:   -0.0000000

-----------------------------------------------------
MULLIKEN REDUCED ORBITAL CHARGES AND SPIN POPULATIONS
-----------------------------------------------------
CHARGE
  0 Cls       :     6.047695  s :     6.047695
      pz      :     3.810114  p :    11.163144
      px      :     3.919013
      py      :     3.434016
      dz2     :     0.010313  d :     0.051707
      dxz     :     0.001078
      dyz     :     0.007114
      dx2y2   :     0.021858
      dxy     :     0.011344
      f0      :     0.001035  f :     0.009344
      f+1     :     0.000317
      f-1     :     0.001630
      f+2     :     0.000386
      f-2     :     0.000671
      f+3     :     0.002414
      f-3     :     0.002892
      g0      :     0.000007  g :     0.000572
      g+1     :     0.000040
      g-1     :    -0.000014
      g+2     :     0.000055
      g-2     :     0.000040
      g+3     :     0.000010
      g-3     :    -0.000173
      g+4     :     0.000188
      g-4     :     0.000419
      h0      :    -0.000071  h :    -0.000285
      h+1     :    -0.000004
      h-1     :    -0.000023
      h+2     :    -0.000062
      h-2     :    -0.000038
      h+3     :     0.000000
      h-3     :    -0.000012
      h+4     :    -0.000042
      h-4     :    -0.000021
      h+5     :     0.000029
      h-5     :    -0.000041
  1 N s       :     3.772506  s :     3.772506
      pz      :     0.840383  p :     2.755423
      px      :     0.985903
      py      :     0.929137
      dz2     :     0.008981  d :     0.158530
      dxz     :     0.032521
      dyz     :     0.021193
      dx2y2   :     0.033728
      dxy     :     0.062106
      f0      :     0.003050  f :     0.025902
      f+1     :     0.000815
      f-1     :     0.000487
      f+2     :     0.006389
      f-2     :     0.000408
      f+3     :     0.005926
      f-3     :     0.008829
      g0      :     0.000144  g :     0.002395
      g+1     :     0.000148
      g-1     :     0.000192
      g+2     :     0.000299
      g-2     :    -0.000132
      g+3     :    -0.000232
      g-3     :     0.000693
      g+4     :     0.000023
      g-4     :     0.001261
      h0      :    -0.000076  h :     0.000169
      h+1     :    -0.000009
      h-1     :     0.000101
      h+2     :    -0.000039
      h-2     :    -0.000113
      h+3     :    -0.000011
      h-3     :     0.000007
      h+4     :     0.000085
      h-4     :     0.000014
      h+5     :     0.000127
      h-5     :     0.000083
  2 O s       :     3.857942  s :     3.857942
      pz      :     1.252115  p :     4.070793
      px      :     1.256237
      py      :     1.562440
      dz2     :     0.003970  d :     0.075334
      dxz     :     0.023996
      dyz     :    -0.000826
      dx2y2   :     0.019411
      dxy     :     0.028784
      f0      :    -0.000042  f :     0.009427
      f+1     :    -0.000430
      f-1     :    -0.000555
      f+2     :     0.001911
      f-2     :    -0.000815
      f+3     :     0.003890
      f-3     :     0.005469
      g0      :    -0.000238  g :    -0.000266
      g+1     :     0.000115
      g-1     :    -0.000562
      g+2     :     0.000178
      g-2     :    -0.000685
      g+3     :    -0.000507
      g-3     :     0.000143
      g+4     :    -0.000464
      g-4     :     0.001755
      h0      :     0.000023  h :    -0.000333
      h+1     :    -0.000062
      h-1     :    -0.000045
      h+2     :    -0.000016
      h-2     :    -0.000116
      h+3     :    -0.000004
      h-3     :    -0.000084
      h+4     :    -0.000032
      h-4     :    -0.000029
      h+5     :    -0.000141
      h-5     :     0.000173

SPIN
  0 Cls       :    -0.000000  s :    -0.000000
      pz      :    -0.000000  p :    -0.000000
      px      :    -0.000000
      py      :    -0.000000
      dz2     :    -0.000000  d :    -0.000000
      dxz     :    -0.000000
      dyz     :     0.000000
      dx2y2   :     0.000000
      dxy     :    -0.000000
      f0      :    -0.000000  f :    -0.000000
      f+1     :    -0.000000
      f-1     :    -0.000000
      f+2     :     0.000000
      f-2     :    -0.000000
      f+3     :    -0.000000
      f-3     :     0.000000
      g0      :    -0.000000  g :    -0.000000
      g+1     :    -0.000000
      g-1     :    -0.000000
      g+2     :    -0.000000
      g-2     :    -0.000000
      g+3     :     0.000000
      g-3     :     0.000000
      g+4     :     0.000000
      g-4     :    -0.000000
      h0      :    -0.000000  h :    -0.000000
      h+1     :    -0.000000
      h-1     :    -0.000000
      h+2     :     0.000000
      h-2     :    -0.000000
      h+3     :    -0.000000
      h-3     :     0.000000
      h+4     :     0.000000
      h-4     :     0.000000
      h+5     :     0.000000
      h-5     :     0.000000
  1 N s       :     0.000000  s :     0.000000
      pz      :     0.000000  p :     0.000000
      px      :     0.000000
      py      :    -0.000000
      dz2     :     0.000000  d :     0.000000
      dxz     :     0.000000
      dyz     :     0.000000
      dx2y2   :     0.000000
      dxy     :     0.000000
      f0      :     0.000000  f :     0.000000
      f+1     :     0.000000
      f-1     :    -0.000000
      f+2     :     0.000000
      f-2     :     0.000000
      f+3     :     0.000000
      f-3     :    -0.000000
      g0      :    -0.000000  g :    -0.000000
      g+1     :     0.000000
      g-1     :     0.000000
      g+2     :    -0.000000
      g-2     :    -0.000000
      g+3     :     0.000000
      g-3     :    -0.000000
      g+4     :    -0.000000
      g-4     :     0.000000
      h0      :     0.000000  h :     0.000000
      h+1     :    -0.000000
      h-1     :    -0.000000
      h+2     :     0.000000
      h-2     :     0.000000
      h+3     :     0.000000
      h-3     :    -0.000000
      h+4     :    -0.000000
      h-4     :     0.000000
      h+5     :     0.000000
      h-5     :    -0.000000
  2 O s       :    -0.000000  s :    -0.000000
      pz      :    -0.000000  p :    -0.000000
      px      :    -0.000000
      py      :     0.000000
      dz2     :    -0.000000  d :    -0.000000
      dxz     :    -0.000000
      dyz     :     0.000000
      dx2y2   :    -0.000000
      dxy     :    -0.000000
      f0      :     0.000000  f :    -0.000000
      f+1     :    -0.000000
      f-1     :     0.000000
      f+2     :    -0.000000
      f-2     :     0.000000
      f+3     :    -0.000000
      f-3     :    -0.000000
      g0      :    -0.000000  g :     0.000000
      g+1     :     0.000000
      g-1     :     0.000000
      g+2     :     0.000000
      g-2     :     0.000000
      g+3     :    -0.000000
      g-3     :     0.000000
      g+4     :    -0.000000
      g-4     :     0.000000
      h0      :     0.000000  h :     0.000000
      h+1     :    -0.000000
      h-1     :     0.000000
      h+2     :    -0.000000
      h-2     :     0.000000
      h+3     :     0.000000
      h-3     :    -0.000000
      h+4     :     0.000000
      h-4     :     0.000000
      h+5     :    -0.000000
      h-5     :    -0.000000


                     *******************************
                     * LOEWDIN POPULATION ANALYSIS *
                     *******************************

-------------------------------------------
LOEWDIN ATOMIC CHARGES AND SPIN POPULATIONS
-------------------------------------------
   0 Cl:    0.968825   -0.000000
   1 N :   -0.833150    0.000000
   2 O :   -0.135675   -0.000000

----------------------------------------------------
LOEWDIN REDUCED ORBITAL CHARGES AND SPIN POPULATIONS
----------------------------------------------------
CHARGE
  0 Cls       :     5.301783  s :     5.301783
      pz      :     3.368463  p :    10.114922
      px      :     3.502636
      py      :     3.243823
      dz2     :     0.042746  d :     0.214013
      dxz     :     0.004420
      dyz     :     0.020626
      dx2y2   :     0.093126
      dxy     :     0.053095
      f0      :     0.012133  f :     0.153003
      f+1     :     0.007980
      f-1     :     0.028409
      f+2     :     0.006855
      f-2     :     0.011426
      f+3     :     0.034796
      f-3     :     0.051404
      g0      :     0.008160  g :     0.134881
      g+1     :     0.004645
      g-1     :     0.016185
      g+2     :     0.010316
      g-2     :     0.012182
      g+3     :     0.012479
      g-3     :     0.000607
      g+4     :     0.046217
      g-4     :     0.024089
      h0      :     0.008241  h :     0.112573
      h+1     :     0.002658
      h-1     :     0.006412
      h+2     :     0.004244
      h-2     :     0.010326
      h+3     :     0.007794
      h-3     :     0.009064
      h+4     :     0.001854
      h-4     :     0.005685
      h+5     :     0.024469
      h-5     :     0.031826
  1 N s       :     3.097844  s :     3.097844
      pz      :     0.732535  p :     2.944588
      px      :     1.250001
      py      :     0.962052
      dz2     :     0.101876  d :     0.964087
      dxz     :     0.119965
      dyz     :     0.100012
      dx2y2   :     0.324462
      dxy     :     0.317773
      f0      :     0.035650  f :     0.466453
      f+1     :     0.032416
      f-1     :     0.035113
      f+2     :     0.076309
      f-2     :     0.012434
      f+3     :     0.118802
      f-3     :     0.155729
      g0      :     0.009390  g :     0.227050
      g+1     :     0.012422
      g-1     :     0.029557
      g+2     :     0.018289
      g-2     :     0.013974
      g+3     :     0.015888
      g-3     :     0.010219
      g+4     :     0.062904
      g-4     :     0.054407
      h0      :     0.010629  h :     0.133127
      h+1     :     0.002242
      h-1     :     0.007929
      h+2     :     0.016679
      h-2     :     0.005932
      h+3     :     0.009923
      h-3     :     0.008755
      h+4     :     0.002384
      h-4     :     0.012651
      h+5     :     0.018014
      h-5     :     0.037990
  2 O s       :     3.229603  s :     3.229603
      pz      :     1.067281  p :     3.872890
      px      :     1.453656
      py      :     1.351953
      dz2     :     0.055229  d :     0.476603
      dxz     :     0.073239
      dyz     :     0.019874
      dx2y2   :     0.173848
      dxy     :     0.154413
      f0      :     0.030237  f :     0.278756
      f+1     :     0.024139
      f-1     :     0.019710
      f+2     :     0.014966
      f-2     :     0.027342
      f+3     :     0.083960
      f-3     :     0.078402
      g0      :     0.007985  g :     0.168411
      g+1     :     0.015150
      g-1     :     0.016795
      g+2     :     0.009042
      g-2     :     0.015287
      g+3     :     0.015290
      g-3     :     0.003940
      g+4     :     0.039875
      g-4     :     0.045046
      h0      :     0.006830  h :     0.109412
      h+1     :     0.003019
      h-1     :     0.002843
      h+2     :     0.000778
      h-2     :     0.014524
      h+3     :     0.008809
      h-3     :     0.006721
      h+4     :     0.010557
      h-4     :     0.001742
      h+5     :     0.034789
      h-5     :     0.018800

SPIN
  0 Cls       :    -0.000000  s :    -0.000000
      pz      :     0.000000  p :    -0.000000
      px      :     0.000000
      py      :    -0.000000
      dz2     :    -0.000000  d :    -0.000000
      dxz     :     0.000000
      dyz     :     0.000000
      dx2y2   :    -0.000000
      dxy     :    -0.000000
      f0      :     0.000000  f :     0.000000
      f+1     :    -0.000000
      f-1     :     0.000000
      f+2     :     0.000000
      f-2     :     0.000000
      f+3     :     0.000000
      f-3     :     0.000000
      g0      :    -0.000000  g :    -0.000000
      g+1     :    -0.000000
      g-1     :    -0.000000
      g+2     :    -0.000000
      g-2     :    -0.000000
      g+3     :     0.000000
      g-3     :     0.000000
      g+4     :     0.000000
      g-4     :    -0.000000
      h0      :     0.000000  h :     0.000000
      h+1     :    -0.000000
      h-1     :     0.000000
      h+2     :     0.000000
      h-2     :     0.000000
      h+3     :    -0.000000
      h-3     :     0.000000
      h+4     :    -0.000000
      h-4     :    -0.000000
      h+5     :     0.000000
      h-5     :     0.000000
  1 N s       :     0.000000  s :     0.000000
      pz      :     0.000000  p :     0.000000
      px      :     0.000000
      py      :    -0.000000
      dz2     :    -0.000000  d :    -0.000000
      dxz     :    -0.000000
      dyz     :    -0.000000
      dx2y2   :    -0.000000
      dxy     :    -0.000000
      f0      :    -0.000000  f :    -0.000000
      f+1     :    -0.000000
      f-1     :     0.000000
      f+2     :    -0.000000
      f-2     :    -0.000000
      f+3     :    -0.000000
      f-3     :    -0.000000
      g0      :    -0.000000  g :    -0.000000
      g+1     :     0.000000
      g-1     :     0.000000
      g+2     :    -0.000000
      g-2     :     0.000000
      g+3     :    -0.000000
      g-3     :     0.000000
      g+4     :    -0.000000
      g-4     :    -0.000000
      h0      :    -0.000000  h :    -0.000000
      h+1     :     0.000000
      h-1     :    -0.000000
      h+2     :    -0.000000
      h-2     :     0.000000
      h+3     :    -0.000000
      h-3     :    -0.000000
      h+4     :     0.000000
      h-4     :     0.000000
      h+5     :     0.000000
      h-5     :     0.000000
  2 O s       :    -0.000000  s :    -0.000000
      pz      :    -0.000000  p :    -0.000000
      px      :    -0.000000
      py      :    -0.000000
      dz2     :    -0.000000  d :    -0.000000
      dxz     :    -0.000000
      dyz     :     0.000000
      dx2y2   :    -0.000000
      dxy     :     0.000000
      f0      :     0.000000  f :     0.000000
      f+1     :     0.000000
      f-1     :     0.000000
      f+2     :     0.000000
      f-2     :    -0.000000
      f+3     :     0.000000
      f-3     :     0.000000
      g0      :    -0.000000  g :    -0.000000
      g+1     :     0.000000
      g-1     :     0.000000
      g+2     :    -0.000000
      g-2     :    -0.000000
      g+3     :     0.000000
      g-3     :    -0.000000
      g+4     :    -0.000000
      g-4     :    -0.000000
      h0      :     0.000000  h :    -0.000000
      h+1     :    -0.000000
      h-1     :    -0.000000
      h+2     :     0.000000
      h-2     :     0.000000
      h+3     :    -0.000000
      h-3     :     0.000000
      h+4     :    -0.000000
      h-4     :     0.000000
      h+5     :    -0.000000
      h-5     :     0.000000


                      *****************************
                      * MAYER POPULATION ANALYSIS *
                      *****************************

  NA   - Mulliken gross atomic population
  ZA   - Total nuclear charge
  QA   - Mulliken gross atomic charge
  VA   - Mayer's total valence
  BVA  - Mayer's bonded valence
  FA   - Mayer's free valence

  ATOM       NA         ZA         QA         VA         BVA        FA
  0 Cl    17.2722    17.0000    -0.2722     1.3054     1.3054     0.0000
  1 N      6.7149     7.0000     0.2851     3.0307     3.0307    -0.0000
  2 O      8.0129     8.0000    -0.0129     2.3905     2.3905    -0.0000

  Mayer bond orders larger than 0.1
B(  0-Cl,  1-N ) :   0.9728 B(  0-Cl,  2-O ) :   0.3326 B(  1-N ,  2-O ) :   2.0579 


-------
TIMINGS
-------

Total SCF time: 0 days 0 hours 38 min 39 sec 

Total time                  ....    2319.906 sec
Sum of individual times     ....    2318.652 sec  ( 99.9%)

Fock matrix formation       ....    2309.834 sec  ( 99.6%)
  XC integration            ....      53.480 sec  (  2.3% of F)
    Basis function eval.    ....       3.614 sec  (  6.8% of XC)
    Density eval.           ....      11.885 sec  ( 22.2% of XC)
    XC-Functional eval.     ....       0.483 sec  (  0.9% of XC)
    XC-Potential eval.      ....      35.931 sec  ( 67.2% of XC)
Diagonalization             ....       2.891 sec  (  0.1%)
Density matrix formation    ....       0.051 sec  (  0.0%)
Population analysis         ....       0.151 sec  (  0.0%)
Initial guess               ....       1.776 sec  (  0.1%)
Orbital Transformation      ....       0.000 sec  (  0.0%)
Orbital Orthonormalization  ....       0.000 sec  (  0.0%)
DIIS solution               ....       1.782 sec  (  0.1%)
Grid generation             ....       2.166 sec  (  0.1%)

-------------------------   --------------------
FINAL SINGLE POINT ENERGY      -589.883833458179
-------------------------   --------------------


                            ***************************************
                            *     ORCA property calculations      *
                            ***************************************

                                    ---------------------
                                    Active property flags
                                    ---------------------
   (+) Dipole Moment
   (+) Polarizability


------------------------------------------------------------------------------
                       ORCA ELECTRIC PROPERTIES CALCULATION
------------------------------------------------------------------------------

Dipole Moment Calculation                       ... on
Quadrupole Moment Calculation                   ... off
Polarizability Calculation                      ... Analytic (CP-SCF)
GBWName                                         ... nocl_pbe.gbw
Electron density file                           ... nocl_pbe.scfp.tmp
The origin for moment calculation is the CENTER OF MASS  = (-0.022361, -0.038826  0.000000)

-------------
DIPOLE MOMENT
-------------
                                X             Y             Z
Electronic contribution:     -0.37379      -0.64933       0.00000
Nuclear contribution   :      0.71403       1.24282       0.00000
                        -----------------------------------------
Total Dipole Moment    :      0.34024       0.59349       0.00000
                        -----------------------------------------
Magnitude (a.u.)       :      0.68410
Magnitude (Debye)      :      1.73885



--------------------
Rotational spectrum 
--------------------
 
Rotational constants in cm-1:     2.884749     0.190162     0.178402 
Rotational constants in MHz : 86482.593014  5700.913502  5348.351357 

 Dipole components along the rotational axes: 
x,y,z [a.u.] :    -0.683068     0.037620     0.000000 
x,y,z [Debye]:    -1.736220     0.095622     0.000000 

 
Transforming and storing MO dipole integrals   ... done

                ... starting polarizability calculation

Opening the Dipole integral file               ... (nocl_pbe.dmo.tmp) done
Reading Dipole-MO integrals                    ... done
Solving CP-SCF equations                       ... 

           ************************************************************
           *        Program running with 4 parallel MPI-processes     *
           *              working on a common directory               *
           ************************************************************

------------------------------------------------------------------------------
                           ORCA CP-SCF CALCULATION
------------------------------------------------------------------------------

Input orbitals are from        ... nocl_pbe.gbw
Input Perturbation             ... nocl_pbe.cpv.tmp
Wavefunction output            ... nocl_pbe.cpu.tmp
Perturbation mode              ... Real perturbation (singlet)
Solver                         ... POPLE
Max. number of iterations      ... 200
Convergence tolerance          ... 1.000e-06
Integral handling              ... Direct
Number of perturbations        ... 3
Number of operators            ... 2
Orbital ranges used for CP-SCF:
 Operator 0:  Orbitals   0... 15  to  16...430
 Operator 1:  Orbitals   0... 15  to  16...430
DFT calculation                         ... on
Exchange functional (SCF)               ... PBE
Exchange functional (CP-SCF)            ... PBE
   PBE kappa parameter  XKappa (SCF)    ...  0.804000
   PBE kappa parameter  XKappa (CP-SCF) ...  0.804000
   PBE mue parameter   XMuePBE (SCF)    ...  0.219520
   PBE mue parameter   XMuePBE (CP-SCF) ...  0.219520
Correlation functional (SCF)            ... PBE
Correlation functional (CP-SCF)         ... PBE
   PBE beta parameter CBetaPBE (SCF)    ...  0.066725
   PBE beta parameter CBetaPBE (CP-SCF) ...  0.066725
 LDA part of GGA corr.  LDAOpt (SCF)    ... PW91-LDA
 LDA part of GGA corr.  LDAOpt (CP-SCF) ... PW91-LDA
Variables per vector in CP-SCF ... 13280
Number of vectors sought       ... 3
Recalculating density on grid  ... done
Calculating the xc-kernel      ... done
     CP-SCF ITERATION   0: 
     CP-SCF ITERATION   1:      4.524548026737
     CP-SCF ITERATION   2:      0.721400957628
     CP-SCF ITERATION   3:      0.019106260953
     CP-SCF ITERATION   4:      0.000948085250
     CP-SCF ITERATION   5:      0.000022375229
     CP-SCF ITERATION   6:      0.000001171251
     CP-SCF ITERATION   7:      0.000000755246
done
Reading CP-SCF coefficients                    ... done
Doing the polarizability tensor   ... done
Cleaning up                                    ... done

-------------------------
THE POLARIZABILITY TENSOR
-------------------------

The raw cartesian tensor (atomic units):
   33.46911     11.80665     -0.00000  
   11.80665     47.21083      0.00000  
   -0.00000      0.00000     23.62367  
diagonalized tensor: 
   23.62367     26.67960     54.00034  

    0.00000     -0.86688     -0.49851  
   -0.00000      0.49851     -0.86688  
    1.00000      0.00000     -0.00000  

Isotropic polarizability :  34.76787


Timings for individual modules:

Sum of individual times         ...     3890.702 sec (=  64.845 min)
GTO integral calculation        ...        4.785 sec (=   0.080 min)   0.1 %
SCF iterations                  ...     2320.615 sec (=  38.677 min)  59.6 %
Solution of CP-SCF eqns.        ...     1565.302 sec (=  26.088 min)  40.2 %
                             ****ORCA TERMINATED NORMALLY****
TOTAL RUN TIME: 0 days 1 hours 4 minutes 56 seconds 57 msec
