
                                 *****************
                                 * O   R   C   A *
                                 *****************

           --- An Ab Initio, DFT and Semiempirical electronic structure package ---

                  #######################################################
                  #                        -***-                        #
                  #          Department of theory and spectroscopy      #
                  #               Directorship: Frank Neese             #
                  #        Max Planck Institute fuer Kohlenforschung    #
                  #                Kaiser Wilhelm Platz 1               #
                  #                 D-45470 Muelheim/Ruhr               #
                  #                      Germany                        #
                  #                                                     #
                  #                  All rights reserved                #
                  #                        -***-                        #
                  #######################################################


                         Program Version 4.1.2  - RELEASE  -


 With contributions from (in alphabetic order):
   Daniel Aravena         : Magnetic Properties
   Michael Atanasov       : Ab Initio Ligand Field Theory
   Alexander A. Auer      : GIAO ZORA
   Ute Becker             : Parallelization
   Giovanni Bistoni       : ED, Open-shell LED
   Martin Brehm           : Molecular dynamics
   Dmytro Bykov           : SCF Hessian
   Vijay G. Chilkuri      : MRCI spin determinant printing
   Dipayan Datta          : RHF DLPNO-CCSD density
   Achintya Kumar Dutta   : EOM-CC, STEOM-CC
   Dmitry Ganyushin       : Spin-Orbit,Spin-Spin,Magnetic field MRCI
   Miquel Garcia          : C-PCM Hessian
   Yang Guo               : DLPNO-NEVPT2, CIM, IAO-localization
   Andreas Hansen         : Spin unrestricted coupled pair/coupled cluster methods
   Benjamin Helmich-Paris : CASSCF linear response (MC-RPA)
   Lee Huntington         : MR-EOM, pCC
   Robert Izsak           : Overlap fitted RIJCOSX, COSX-SCS-MP3, EOM
   Christian Kollmar      : KDIIS, OOCD, Brueckner-CCSD(T), CCSD density
   Simone Kossmann        : Meta GGA functionals, TD-DFT gradient, OOMP2, MP2 Hessian
   Martin Krupicka        : AUTO-CI
   Lucas Lang             : DCDCAS
   Dagmar Lenk            : GEPOL surface, SMD
   Dimitrios Liakos       : Extrapolation schemes; parallel MDCI
   Dimitrios Manganas     : ROCIS; embedding schemes
   Dimitrios Pantazis     : SARC Basis sets
   Taras Petrenko         : DFT Hessian,TD-DFT gradient, ASA, ECA, R-Raman, ABS, FL, XAS/XES, NRVS
   Peter Pinski           : DLPNO-MP2, DLPNO-MP2 Gradient
   Christoph Reimann      : Effective Core Potentials
   Marius Retegan         : Local ZFS, SOC
   Christoph Riplinger    : Optimizer, TS searches, QM/MM, DLPNO-CCSD(T), (RO)-DLPNO pert. Triples
   Tobias Risthaus        : Range-separated hybrids, TD-DFT gradient, RPA, STAB
   Michael Roemelt        : Restricted open shell CIS
   Masaaki Saitow         : Open-shell DLPNO
   Barbara Sandhoefer     : DKH picture change effects
   Avijit Sen             : IP-ROCIS
   Kantharuban Sivalingam : CASSCF convergence, NEVPT2, FIC-MRCI
   Bernardo de Souza      : ESD, SOC TD-DFT
   Georgi Stoychev        : AutoAux, RI-MP2 NMR
   Willem Van den Heuvel  : Paramagnetic NMR
   Boris Wezisla          : Elementary symmetry handling
   Frank Wennmohs         : Technical directorship


 We gratefully acknowledge several colleagues who have allowed us to
 interface, adapt or use parts of their codes:
   Stefan Grimme, W. Hujo, H. Kruse,             : VdW corrections, initial TS optimization,
                  C. Bannwarth                     DFT functionals, gCP, sTDA/sTD-DF
   Ed Valeev                                     : LibInt (2-el integral package), F12 methods
   Garnet Chan, S. Sharma, J. Yang, R. Olivares  : DMRG
   Ulf Ekstrom                                   : XCFun DFT Library
   Mihaly Kallay                                 : mrcc  (arbitrary order and MRCC methods)
   Andreas Klamt, Michael Diedenhofen            : otool_cosmo (COSMO solvation model)
   Jiri Pittner, Ondrej Demel                    : Mk-CCSD
   Frank Weinhold                                : gennbo (NPA and NBO analysis)
   Christopher J. Cramer and Donald G. Truhlar   : smd solvation model
   Lars Goerigk                                  : TD-DFT with DH, B97 family of functionals
   V. Asgeirsson, H. Jonsson                     : NEB implementation
   FAccTs GmbH                                   : IRC, NEB, NEB-TS, Multilevel


 Your calculation uses the libint2 library for the computation of 2-el integrals
 For citations please refer to: http://libint.valeyev.net

 This ORCA versions uses:
   CBLAS   interface :  Fast vector & matrix operations
   LAPACKE interface :  Fast linear algebra routines
   SCALAPACK package :  Parallel linear algebra routines


----- Orbital basis set information -----
Your calculation utilizes the basis: aug-pc-4
   H, C-F              : F. Jensen, J. Chem. Phys. 115, 9113 (2001).
                         F. Jensen, J. Chem. Phys. 116, 7372 (2002).
                         F. Jensen, J. Chem. Phys. 117, 9234 (2002).
   Si-Cl               : F. Jensen, T. Helgaker, J. Chem. Phys. 121, 3463 (2004).
   He-B, Ne-Mg, Al, Ar : F. Jensen, J. Phys. Chem. A 111, 11198 (2007).
   K, Ca, Ga-Kr        : F. Jensen, J. Chem. Phys. 136, 094110 (2012).
   Sc-Zn               : F. Jensen, J. Chem. Phys. 138, 014107 (2013).

================================================================================
                                        WARNINGS
                       Please study these warnings very carefully!
================================================================================


INFO   : the flag for use of LIBINT has been found!

================================================================================
                                       INPUT FILE
================================================================================
NAME = o3_pbe.inp
|  1> !uks pbe nori aug-pc-4 grid7 nofinalgrid verytightscf
|  2> 
|  3> %maxcore 1500
|  4> 
|  5> %pal nprocs 1 end
|  6> 
|  7> %scf
|  8> 	maxiter 200
|  9> end
| 10> %elprop
| 11> 	dipole true
| 12> 	 polar 1
| 13> 	 maxiter 200
| 14> end
| 15> 
| 16> * xyz 0 1
| 17> O 0.0000 0.0000 0.0000
| 18> O 0.0000 1.0885 0.6697
| 19> O 0.0000 -1.0885 0.6697
| 20> *
| 21> 
| 22>                          ****END OF INPUT****
================================================================================

                       ****************************
                       * Single Point Calculation *
                       ****************************

---------------------------------
CARTESIAN COORDINATES (ANGSTROEM)
---------------------------------
  O      0.000000    0.000000    0.000000
  O      0.000000    1.088500    0.669700
  O      0.000000   -1.088500    0.669700

----------------------------
CARTESIAN COORDINATES (A.U.)
----------------------------
  NO LB      ZA    FRAG     MASS         X           Y           Z
   0 O     8.0000    0    15.999    0.000000    0.000000    0.000000
   1 O     8.0000    0    15.999    0.000000    2.056967    1.265550
   2 O     8.0000    0    15.999    0.000000   -2.056967    1.265550

--------------------------------
INTERNAL COORDINATES (ANGSTROEM)
--------------------------------
 O      0   0   0     0.000000000000     0.00000000     0.00000000
 O      1   0   0     1.278018129762     0.00000000     0.00000000
 O      1   2   0     1.278018129762   116.79615620     0.00000000

---------------------------
INTERNAL COORDINATES (A.U.)
---------------------------
 O      0   0   0     0.000000000000     0.00000000     0.00000000
 O      1   0   0     2.415104259436     0.00000000     0.00000000
 O      1   2   0     2.415104259436   116.79615620     0.00000000

---------------------
BASIS SET INFORMATION
---------------------
There are 1 groups of distinct atoms

 Group   1 Type O   : 27s12p7d4f3g2h contracted to 9s8p7d4f3g2h pattern {1191111111/51111111/1111111/1111/111/11}

Atom   0O    basis set group =>   1
Atom   1O    basis set group =>   1
Atom   2O    basis set group =>   1
------------------------------------------------------------------------------
                           ORCA GTO INTEGRAL CALCULATION
------------------------------------------------------------------------------

                         BASIS SET STATISTICS AND STARTUP INFO

 # of primitive gaussian shells          ...  165
 # of primitive gaussian functions       ...  525
 # of contracted shells                  ...   99
 # of contracted basis functions         ...  435
 Highest angular momentum                ...    5
 Maximum contraction depth               ...   11
 Integral package used                   ... LIBINT
 Integral threshhold            Thresh   ...  1.000e-12
 Primitive cut-off              TCut     ...  1.000e-14


------------------------------ INTEGRAL EVALUATION ----------------------------


 * One electron integrals 
 Pre-screening matrix                    ... done
 Shell pair data                         ... done (   0.001 sec)

-------------------------------------------------------------------------------
                                 ORCA SCF
-------------------------------------------------------------------------------

------------
SCF SETTINGS
------------
Hamiltonian:
 Density Functional     Method          .... DFT(GTOs)
 Exchange Functional    Exchange        .... PBE
   PBE kappa parameter   XKappa         ....  0.804000
   PBE mue parameter    XMuePBE         ....  0.219520
 Correlation Functional Correlation     .... PBE
   PBE beta parameter  CBetaPBE         ....  0.066725
 LDA part of GGA corr.  LDAOpt          .... PW91-LDA
 Gradients option       PostSCFGGA      .... off
   Density functional embedding theory  .... OFF
   NL short-range parameter             ....  6.400000


General Settings:
 Integral files         IntName         .... o3_pbe
 Hartree-Fock type      HFTyp           .... UHF
 Total Charge           Charge          ....    0
 Multiplicity           Mult            ....    1
 Number of Electrons    NEL             ....   24
 Basis Dimension        Dim             ....  435
 Nuclear Repulsion      ENuc            ....     68.5566685414 Eh

Convergence Acceleration:
 DIIS                   CNVDIIS         .... on
   Start iteration      DIISMaxIt       ....    12
   Startup error        DIISStart       ....  0.200000
   # of expansion vecs  DIISMaxEq       ....     5
   Bias factor          DIISBfac        ....   1.050
   Max. coefficient     DIISMaxC        ....  10.000
 Newton-Raphson         CNVNR           .... off
 SOSCF                  CNVSOSCF        .... off
 Level Shifting         CNVShift        .... on
   Level shift para.    LevelShift      ....    0.2500
   Turn off err/grad.   ShiftErr        ....    0.0010
 Zerner damping         CNVZerner       .... off
 Static damping         CNVDamp         .... on
   Fraction old density DampFac         ....    0.7000
   Max. Damping (<1)    DampMax         ....    0.9800
   Min. Damping (>=0)   DampMin         ....    0.0000
   Turn off err/grad.   DampErr         ....    0.1000
 Fernandez-Rico         CNVRico         .... off

SCF Procedure:
 Maximum # iterations   MaxIter         ....   200
 SCF integral mode      SCFMode         .... Direct
   Integral package                     .... LIBINT
 Reset frequency        DirectResetFreq ....    20
 Integral Threshold     Thresh          ....  1.000e-12 Eh
 Primitive CutOff       TCut            ....  1.000e-14 Eh

Convergence Tolerance:
 Convergence Check Mode ConvCheckMode   .... Total+1el-Energy
 Convergence forced     ConvForced      .... 0
 Energy Change          TolE            ....  1.000e-09 Eh
 1-El. energy change                    ....  1.000e-06 Eh
 DIIS Error             TolErr          ....  1.000e-08


Diagonalization of the overlap matrix:
Smallest eigenvalue                        ... 1.820e-06
Time for diagonalization                   ...    0.039 sec
Threshold for overlap eigenvalues          ... 1.000e-08
Number of eigenvalues below threshold      ... 0
Time for construction of square roots      ...    0.024 sec
Total time needed                          ...    0.065 sec

-------------------
DFT GRID GENERATION
-------------------

General Integration Accuracy     IntAcc      ...  5.670
Radial Grid Type                 RadialGrid  ... Gauss-Chebyshev
Angular Grid (max. acc.)         AngularGrid ... Lebedev-770
Angular grid pruning method      GridPruning ... 3 (G Style)
Weight generation scheme         WeightScheme... Becke
Basis function cutoff            BFCut       ...    1.0000e-12
Integration weight cutoff        WCut        ...    1.0000e-14
Grids for H and He will be reduced by one unit

# of grid points (after initial pruning)     ...  75030 (   0.0 sec)
# of grid points (after weights+screening)   ...  74358 (   0.0 sec)
nearest neighbour list constructed           ...    0.0 sec
Grid point re-assignment to atoms done       ...    0.0 sec
Grid point division into batches done        ...    1.6 sec
Reduced shell lists constructed in    2.5 sec

Total number of grid points                  ...    74358
Total number of batches                      ...     1164
Average number of points per batch           ...       63
Average number of grid points per atom       ...    24786
Average number of shells per batch           ...    69.89 (70.60%)
Average number of basis functions per batch  ...   321.64 (73.94%)
Average number of large shells per batch     ...    62.06 (88.80%)
Average number of large basis fcns per batch ...   286.55 (89.09%)
Maximum spatial batch extension              ...  15.25, 21.32, 19.92 au
Average spatial batch extension              ...   2.16,  2.07,  2.14 au

Time for grid setup =    2.563 sec

------------------------------
INITIAL GUESS: MODEL POTENTIAL
------------------------------
Loading Hartree-Fock densities                     ... done
Calculating cut-offs                               ... done
Setting up the integral package                    ... done
Initializing the effective Hamiltonian             ... done
Starting the Coulomb interaction                   ... done (   0.1 sec)
Reading the grid                                   ... done
Mapping shells                                     ... done
Starting the XC term evaluation                    ... done (   5.6 sec)
  promolecular density results
     # of electrons  =     24.000000998
     EX              =    -24.352704001
     EC              =     -0.814686699
     EX+EC           =    -25.167390700
Transforming the Hamiltonian                       ... done (   0.0 sec)
Diagonalizing the Hamiltonian                      ... done (   0.0 sec)
Back transforming the eigenvectors                 ... done (   0.0 sec)
Now organizing SCF variables                       ... done
                      ------------------
                      INITIAL GUESS DONE (   8.5 sec)
                      ------------------
--------------
SCF ITERATIONS
--------------
ITER       Energy         Delta-E        Max-DP      RMS-DP      [F,P]     Damp
               ***  Starting incremental Fock matrix formation  ***
  0   -225.2053131765   0.000000000000 0.01406789  0.00015114  0.2547913 0.7000
  1   -225.2792762702  -0.073963093699 0.00633390  0.00006497  0.0513779 0.7000
                               ***Turning on DIIS***
  2   -225.2908144779  -0.011538207690 0.00867740  0.00009758  0.0633969 0.0000
  3   -225.3389993347  -0.048184856748 0.00463014  0.00003930  0.0400187 0.0000
  4   -225.3404755683  -0.001476233605 0.00133453  0.00001005  0.0100329 0.0000
  5   -225.3406245022  -0.000148933963 0.00015130  0.00000289  0.0014733 0.0000
  6   -225.3406306569  -0.000006154683 0.00009734  0.00000194  0.0002069 0.0000
  7   -225.3406309289  -0.000000271941 0.00002356  0.00000028  0.0002271 0.0000
  8   -225.3406310021  -0.000000073291 0.00000370  0.00000008  0.0000499 0.0000
  9   -225.3406310056  -0.000000003421 0.00000502  0.00000004  0.0000181 0.0000
 10   -225.3406310062  -0.000000000586 0.00000164  0.00000002  0.0000047 0.0000
 11   -225.3406310062  -0.000000000064 0.00000719  0.00000006  0.0000005 0.0000
                 **** Energy Check signals convergence ****

               *****************************************************
               *                     SUCCESS                       *
               *           SCF CONVERGED AFTER  12 CYCLES          *
               *****************************************************


----------------
TOTAL SCF ENERGY
----------------

Total Energy       :         -225.34063101 Eh           -6131.83031 eV

Components:
Nuclear Repulsion  :           68.55666854 Eh            1865.52179 eV
Electronic Energy  :         -293.89729955 Eh           -7997.35210 eV
One Electron Energy:         -445.11541746 Eh          -12112.20628 eV
Two Electron Energy:          151.21811791 Eh            4114.85418 eV

Virial components:
Potential Energy   :         -449.97040213 Eh          -12244.31713 eV
Kinetic Energy     :          224.62977112 Eh            6112.48683 eV
Virial Ratio       :            2.00316458


DFT components:
N(Alpha)           :       12.000000346302 electrons
N(Beta)            :       12.000000346302 electrons
N(Total)           :       24.000000692605 electrons
E(X)               :      -24.467888319830 Eh       
E(C)               :       -0.812431798607 Eh       
E(XC)              :      -25.280320118437 Eh       
DFET-embed. en.    :        0.000000000000 Eh       

---------------
SCF CONVERGENCE
---------------

  Last Energy change         ...    8.9813e-12  Tolerance :   1.0000e-09
  Last MAX-Density change    ...    4.8008e-06  Tolerance :   1.0000e-08
  Last RMS-Density change    ...    4.3248e-08  Tolerance :   1.0000e-09
  Last DIIS Error            ...    5.2456e-07  Tolerance :   1.0000e-08

             **** THE GBW FILE WAS UPDATED (o3_pbe.gbw) ****
             **** DENSITY FILE WAS UPDATED (o3_pbe.scfp.tmp) ****
             **** ENERGY FILE WAS UPDATED (o3_pbe.en.tmp) ****
----------------------
UHF SPIN CONTAMINATION
----------------------

Warning: in a DFT calculation there is little theoretical justification to 
         calculate <S**2> as in Hartree-Fock theory. We will do it anyways
         but you should keep in mind that the values have only limited relevance

Expectation value of <S**2>     :     0.000000
Ideal value S*(S+1) for S=0.0   :     0.000000
Deviation                       :     0.000000

----------------
ORBITAL ENERGIES
----------------
                 SPIN UP ORBITALS
  NO   OCC          E(Eh)            E(eV) 
   0   1.0000     -19.042139      -518.1629 
   1   1.0000     -18.868556      -513.4395 
   2   1.0000     -18.868556      -513.4395 
   3   1.0000      -1.260302       -34.2946 
   4   1.0000      -1.008295       -27.4371 
   5   1.0000      -0.715602       -19.4725 
   6   1.0000      -0.546846       -14.8804 
   7   1.0000      -0.542008       -14.7488 
   8   1.0000      -0.531377       -14.4595 
   9   1.0000      -0.336532        -9.1575 
  10   1.0000      -0.297152        -8.0859 
  11   1.0000      -0.294090        -8.0026 
  12   0.0000      -0.228328        -6.2131 
  13   0.0000      -0.004201        -0.1143 
  14   0.0000       0.002770         0.0754 
  15   0.0000       0.016668         0.4536 
  16   0.0000       0.025156         0.6845 
  17   0.0000       0.027812         0.7568 
  18   0.0000       0.054100         1.4721 
  19   0.0000       0.055690         1.5154 
  20   0.0000       0.055748         1.5170 
  21   0.0000       0.060979         1.6593 
  22   0.0000       0.061283         1.6676 
  23   0.0000       0.073459         1.9989 
  24   0.0000       0.089372         2.4319 
  25   0.0000       0.104460         2.8425 
  26   0.0000       0.115559         3.1445 
  27   0.0000       0.135840         3.6964 
  28   0.0000       0.151062         4.1106 
  29   0.0000       0.154921         4.2156 
  30   0.0000       0.159219         4.3326 
  31   0.0000       0.160884         4.3779 
  32   0.0000       0.162854         4.4315 
  33   0.0000       0.179105         4.8737 
  34   0.0000       0.182537         4.9671 
  35   0.0000       0.182894         4.9768 
  36   0.0000       0.186815         5.0835 
  37   0.0000       0.207827         5.6553 
  38   0.0000       0.215472         5.8633 
  39   0.0000       0.222002         6.0410 
  40   0.0000       0.224692         6.1142 
  41   0.0000       0.247494         6.7347 
  42   0.0000       0.257457         7.0058 
  43   0.0000       0.258612         7.0372 
  44   0.0000       0.261983         7.1289 
  45   0.0000       0.283905         7.7254 
  46   0.0000       0.298217         8.1149 
  47   0.0000       0.298700         8.1280 
  48   0.0000       0.327694         8.9170 
  49   0.0000       0.329750         8.9729 
  50   0.0000       0.346214         9.4209 
  51   0.0000       0.362890         9.8747 
  52   0.0000       0.366745         9.9796 
  53   0.0000       0.385244        10.4830 
  54   0.0000       0.388220        10.5640 
  55   0.0000       0.388284        10.5657 
  56   0.0000       0.399611        10.8740 
  57   0.0000       0.404579        11.0092 
  58   0.0000       0.408156        11.1065 
  59   0.0000       0.419362        11.4114 
  60   0.0000       0.421935        11.4814 
  61   0.0000       0.424897        11.5620 
  62   0.0000       0.433828        11.8051 
  63   0.0000       0.436269        11.8715 
  64   0.0000       0.437967        11.9177 
  65   0.0000       0.453698        12.3457 
  66   0.0000       0.456865        12.4319 
  67   0.0000       0.459821        12.5124 
  68   0.0000       0.486076        13.2268 
  69   0.0000       0.512111        13.9353 
  70   0.0000       0.515490        14.0272 
  71   0.0000       0.522081        14.2065 
  72   0.0000       0.527068        14.3422 
  73   0.0000       0.545757        14.8508 
  74   0.0000       0.546239        14.8639 
  75   0.0000       0.580418        15.7940 
  76   0.0000       0.581904        15.8344 
  77   0.0000       0.594065        16.1653 
  78   0.0000       0.611042        16.6273 
  79   0.0000       0.620207        16.8767 
  80   0.0000       0.629556        17.1311 
  81   0.0000       0.651795        17.7363 
  82   0.0000       0.662182        18.0189 
  83   0.0000       0.671875        18.2826 
  84   0.0000       0.673912        18.3381 
  85   0.0000       0.679068        18.4784 
  86   0.0000       0.684505        18.6263 
  87   0.0000       0.717387        19.5211 
  88   0.0000       0.718217        19.5437 
  89   0.0000       0.724685        19.7197 
  90   0.0000       0.732125        19.9221 
  91   0.0000       0.735370        20.0104 
  92   0.0000       0.738248        20.0887 
  93   0.0000       0.751296        20.4438 
  94   0.0000       0.773332        21.0434 
  95   0.0000       0.779012        21.1980 
  96   0.0000       0.780847        21.2479 
  97   0.0000       0.785910        21.3857 
  98   0.0000       0.795176        21.6378 
  99   0.0000       0.818133        22.2625 
 100   0.0000       0.838027        22.8039 
 101   0.0000       0.844277        22.9739 
 102   0.0000       0.847982        23.0748 
 103   0.0000       0.851565        23.1723 
 104   0.0000       0.856618        23.3098 
 105   0.0000       0.869383        23.6571 
 106   0.0000       0.875518        23.8241 
 107   0.0000       0.880964        23.9723 
 108   0.0000       0.886625        24.1263 
 109   0.0000       0.899855        24.4863 
 110   0.0000       0.911878        24.8135 
 111   0.0000       0.923951        25.1420 
 112   0.0000       0.925184        25.1755 
 113   0.0000       0.929287        25.2872 
 114   0.0000       0.932355        25.3707 
 115   0.0000       0.937961        25.5232 
 116   0.0000       0.951569        25.8935 
 117   0.0000       0.955468        25.9996 
 118   0.0000       0.957487        26.0545 
 119   0.0000       0.972072        26.4514 
 120   0.0000       0.996981        27.1292 
 121   0.0000       1.003716        27.3125 
 122   0.0000       1.006336        27.3838 
 123   0.0000       1.008623        27.4460 
 124   0.0000       1.013153        27.5693 
 125   0.0000       1.044980        28.4354 
 126   0.0000       1.051183        28.6041 
 127   0.0000       1.060892        28.8683 
 128   0.0000       1.067886        29.0586 
 129   0.0000       1.078874        29.3576 
 130   0.0000       1.080754        29.4088 
 131   0.0000       1.101782        29.9810 
 132   0.0000       1.105616        30.0853 
 133   0.0000       1.167846        31.7787 
 134   0.0000       1.172737        31.9118 
 135   0.0000       1.198677        32.6177 
 136   0.0000       1.201543        32.6957 
 137   0.0000       1.211988        32.9799 
 138   0.0000       1.215252        33.0687 
 139   0.0000       1.223112        33.2826 
 140   0.0000       1.232645        33.5420 
 141   0.0000       1.243051        33.8252 
 142   0.0000       1.249571        34.0025 
 143   0.0000       1.267999        34.5040 
 144   0.0000       1.272725        34.6326 
 145   0.0000       1.279721        34.8230 
 146   0.0000       1.286277        35.0014 
 147   0.0000       1.289612        35.0921 
 148   0.0000       1.291338        35.1391 
 149   0.0000       1.317497        35.8509 
 150   0.0000       1.331540        36.2330 
 151   0.0000       1.333121        36.2761 
 152   0.0000       1.354332        36.8532 
 153   0.0000       1.364874        37.1401 
 154   0.0000       1.383862        37.6568 
 155   0.0000       1.397102        38.0171 
 156   0.0000       1.410157        38.3723 
 157   0.0000       1.462010        39.7833 
 158   0.0000       1.485597        40.4251 
 159   0.0000       1.570641        42.7393 
 160   0.0000       1.683509        45.8106 
 161   0.0000       1.684246        45.8307 
 162   0.0000       1.688789        45.9543 
 163   0.0000       1.695441        46.1353 
 164   0.0000       1.752484        47.6875 
 165   0.0000       1.770817        48.1864 
 166   0.0000       1.792103        48.7656 
 167   0.0000       1.803173        49.0668 
 168   0.0000       1.841035        50.0971 
 169   0.0000       1.879775        51.1513 
 170   0.0000       1.895929        51.5908 
 171   0.0000       1.910198        51.9791 
 172   0.0000       1.915152        52.1139 
 173   0.0000       1.947261        52.9877 
 174   0.0000       1.997822        54.3635 
 175   0.0000       2.001926        54.4752 
 176   0.0000       2.046752        55.6950 
 177   0.0000       2.057401        55.9847 
 178   0.0000       2.067052        56.2474 
 179   0.0000       2.158562        58.7375 
 180   0.0000       2.158646        58.7397 
 181   0.0000       2.185981        59.4836 
 182   0.0000       2.223432        60.5027 
 183   0.0000       2.238998        60.9262 
 184   0.0000       2.247179        61.1488 
 185   0.0000       2.269360        61.7524 
 186   0.0000       2.282323        62.1052 
 187   0.0000       2.299453        62.5713 
 188   0.0000       2.311949        62.9113 
 189   0.0000       2.367753        64.4298 
 190   0.0000       2.403713        65.4084 
 191   0.0000       2.447200        66.5917 
 192   0.0000       2.449296        66.6487 
 193   0.0000       2.470424        67.2237 
 194   0.0000       2.528524        68.8046 
 195   0.0000       2.610768        71.0426 
 196   0.0000       2.803353        76.2831 
 197   0.0000       2.830255        77.0151 
 198   0.0000       2.831492        77.0488 
 199   0.0000       3.036595        82.6300 
 200   0.0000       3.069737        83.5318 
 201   0.0000       3.132240        85.2326 
 202   0.0000       3.193194        86.8912 
 203   0.0000       3.205948        87.2383 
 204   0.0000       3.243095        88.2491 
 205   0.0000       3.243754        88.2670 
 206   0.0000       3.429206        93.3134 
 207   0.0000       3.835171       104.3603 
 208   0.0000       3.848551       104.7244 
 209   0.0000       3.860154       105.0401 
 210   0.0000       3.936082       107.1062 
 211   0.0000       4.062997       110.5598 
 212   0.0000       4.068176       110.7007 
 213   0.0000       4.087235       111.2193 
 214   0.0000       4.157860       113.1411 
 215   0.0000       4.190654       114.0335 
 216   0.0000       4.216748       114.7436 
 217   0.0000       4.224475       114.9538 
 218   0.0000       4.253316       115.7386 
 219   0.0000       4.289742       116.7298 
 220   0.0000       4.321284       117.5881 
 221   0.0000       4.382970       119.2667 
 222   0.0000       4.386268       119.3564 
 223   0.0000       4.433634       120.6453 
 224   0.0000       4.466887       121.5502 
 225   0.0000       4.495227       122.3213 
 226   0.0000       4.552164       123.8707 
 227   0.0000       4.585617       124.7810 
 228   0.0000       4.587511       124.8325 
 229   0.0000       4.697623       127.8288 
 230   0.0000       4.838756       131.6692 
 231   0.0000       4.910839       133.6307 
 232   0.0000       4.929229       134.1311 
 233   0.0000       5.002671       136.1296 
 234   0.0000       5.024714       136.7294 
 235   0.0000       5.076066       138.1268 
 236   0.0000       5.079515       138.2206 
 237   0.0000       5.181675       141.0005 
 238   0.0000       5.193568       141.3242 
 239   0.0000       5.258697       143.0964 
 240   0.0000       5.287577       143.8823 
 241   0.0000       5.332741       145.1113 
 242   0.0000       5.345935       145.4703 
 243   0.0000       5.367476       146.0564 
 244   0.0000       5.469985       148.8459 
 245   0.0000       5.486689       149.3004 
 246   0.0000       5.532189       150.5385 
 247   0.0000       5.680726       154.5804 
 248   0.0000       5.688707       154.7976 
 249   0.0000       5.766016       156.9013 
 250   0.0000       5.830825       158.6648 
 251   0.0000       5.854283       159.3031 
 252   0.0000       5.925792       161.2490 
 253   0.0000       5.939801       161.6302 
 254   0.0000       5.955211       162.0495 
 255   0.0000       5.966391       162.3537 
 256   0.0000       5.998405       163.2249 
 257   0.0000       6.123204       166.6209 
 258   0.0000       6.173417       167.9872 
 259   0.0000       6.185037       168.3034 
 260   0.0000       6.241910       169.8510 
 261   0.0000       6.319020       171.9493 
 262   0.0000       6.404019       174.2622 
 263   0.0000       6.459863       175.7818 
 264   0.0000       6.811552       185.3517 
 265   0.0000       6.948816       189.0869 
 266   0.0000       7.008992       190.7244 
 267   0.0000       7.078534       192.6167 
 268   0.0000       7.129799       194.0117 
 269   0.0000       7.177911       195.3209 
 270   0.0000       7.333312       199.5496 
 271   0.0000       7.619181       207.3284 
 272   0.0000       7.650339       208.1763 
 273   0.0000       7.831444       213.1044 
 274   0.0000       7.934863       215.9186 
 275   0.0000       8.052655       219.1239 
 276   0.0000       8.412147       228.9062 
 277   0.0000       8.437517       229.5965 
 278   0.0000       8.655342       235.5238 
 279   0.0000       8.678630       236.1575 
 280   0.0000       9.044932       246.1251 
 281   0.0000       9.073586       246.9048 
 282   0.0000       9.184952       249.9352 
 283   0.0000       9.237881       251.3755 
 284   0.0000       9.249410       251.6892 
 285   0.0000       9.347439       254.3567 
 286   0.0000       9.384075       255.3537 
 287   0.0000       9.422918       256.4106 
 288   0.0000       9.502318       258.5712 
 289   0.0000       9.507453       258.7110 
 290   0.0000       9.614297       261.6183 
 291   0.0000       9.925627       270.0901 
 292   0.0000      10.037001       273.1207 
 293   0.0000      10.173234       276.8278 
 294   0.0000      10.215290       277.9722 
 295   0.0000      10.605449       288.5889 
 296   0.0000      10.688714       290.8547 
 297   0.0000      10.818783       294.3940 
 298   0.0000      10.834027       294.8089 
 299   0.0000      10.948753       297.9307 
 300   0.0000      10.999056       299.2995 
 301   0.0000      11.061622       301.0020 
 302   0.0000      11.099147       302.0231 
 303   0.0000      11.106480       302.2227 
 304   0.0000      11.209384       305.0228 
 305   0.0000      11.221534       305.3535 
 306   0.0000      11.247627       306.0635 
 307   0.0000      11.341867       308.6279 
 308   0.0000      11.347010       308.7678 
 309   0.0000      11.348739       308.8149 
 310   0.0000      11.502285       312.9931 
 311   0.0000      11.577969       315.0526 
 312   0.0000      11.602567       315.7219 
 313   0.0000      11.627592       316.4029 
 314   0.0000      11.722603       318.9882 
 315   0.0000      11.922173       324.4188 
 316   0.0000      11.971102       325.7502 
 317   0.0000      11.979476       325.9781 
 318   0.0000      11.981740       326.0397 
 319   0.0000      11.982077       326.0489 
 320   0.0000      11.982774       326.0678 
 321   0.0000      11.995254       326.4075 
 322   0.0000      12.040870       327.6487 
 323   0.0000      12.099729       329.2504 
 324   0.0000      12.126036       329.9662 
 325   0.0000      12.394924       337.2830 
 326   0.0000      12.445602       338.6620 
 327   0.0000      12.480304       339.6063 
 328   0.0000      12.564676       341.9022 
 329   0.0000      12.603056       342.9466 
 330   0.0000      12.606579       343.0424 
 331   0.0000      12.615632       343.2888 
 332   0.0000      12.707561       345.7903 
 333   0.0000      12.717900       346.0717 
 334   0.0000      12.733818       346.5048 
 335   0.0000      12.747981       346.8902 
 336   0.0000      12.755798       347.1029 
 337   0.0000      12.764098       347.3288 
 338   0.0000      12.771597       347.5328 
 339   0.0000      12.784005       347.8705 
 340   0.0000      12.787596       347.9682 
 341   0.0000      13.056651       355.2895 
 342   0.0000      13.120297       357.0214 
 343   0.0000      13.145853       357.7169 
 344   0.0000      13.368961       363.7879 
 345   0.0000      13.427699       365.3863 
 346   0.0000      13.477355       366.7375 
 347   0.0000      13.507604       367.5606 
 348   0.0000      13.688470       372.4822 
 349   0.0000      13.894908       378.0997 
 350   0.0000      14.383266       391.3886 
 351   0.0000      14.612794       397.6343 
 352   0.0000      14.704691       400.1350 
 353   0.0000      15.102711       410.9657 
 354   0.0000      15.152644       412.3244 
 355   0.0000      15.331846       417.2007 
 356   0.0000      15.536589       422.7721 
 357   0.0000      16.772325       456.3982 
 358   0.0000      16.852299       458.5744 
 359   0.0000      16.926968       460.6062 
 360   0.0000      16.937089       460.8816 
 361   0.0000      16.937362       460.8891 
 362   0.0000      16.942080       461.0174 
 363   0.0000      17.048316       463.9083 
 364   0.0000      17.062926       464.3058 
 365   0.0000      17.085245       464.9132 
 366   0.0000      17.141811       466.4524 
 367   0.0000      17.169887       467.2164 
 368   0.0000      17.227031       468.7713 
 369   0.0000      17.229484       468.8381 
 370   0.0000      17.295181       470.6258 
 371   0.0000      17.350076       472.1196 
 372   0.0000      17.595640       478.8017 
 373   0.0000      17.790316       484.0991 
 374   0.0000      17.894401       486.9314 
 375   0.0000      17.907819       487.2965 
 376   0.0000      18.006349       489.9777 
 377   0.0000      18.259508       496.8665 
 378   0.0000      18.429067       501.4804 
 379   0.0000      18.546445       504.6744 
 380   0.0000      18.592197       505.9194 
 381   0.0000      18.610050       506.4052 
 382   0.0000      18.627201       506.8719 
 383   0.0000      18.786554       511.2081 
 384   0.0000      18.839628       512.6524 
 385   0.0000      18.876016       513.6425 
 386   0.0000      18.986872       516.6591 
 387   0.0000      19.342613       526.3393 
 388   0.0000      19.476993       529.9959 
 389   0.0000      19.632156       534.2181 
 390   0.0000      22.833815       621.3397 
 391   0.0000      22.938136       624.1784 
 392   0.0000      22.948169       624.4514 
 393   0.0000      22.953501       624.5965 
 394   0.0000      22.988438       625.5472 
 395   0.0000      23.002240       625.9228 
 396   0.0000      23.056084       627.3879 
 397   0.0000      23.913908       650.7305 
 398   0.0000      24.014420       653.4656 
 399   0.0000      24.102573       655.8644 
 400   0.0000      24.543483       667.8621 
 401   0.0000      24.809760       675.1079 
 402   0.0000      24.931072       678.4089 
 403   0.0000      27.436591       746.5876 
 404   0.0000      28.047201       763.2031 
 405   0.0000      29.676662       807.5430 
 406   0.0000      30.565583       831.7318 
 407   0.0000      31.125821       846.9767 
 408   0.0000      31.604238       859.9950 
 409   0.0000      31.849493       866.6688 
 410   0.0000      31.933052       868.9425 
 411   0.0000      31.947746       869.3424 
 412   0.0000      31.953279       869.4929 
 413   0.0000      33.139618       901.7749 
 414   0.0000      33.735928       918.0013 
 415   0.0000      34.162494       929.6087 
 416   0.0000      34.920337       950.2307 
 417   0.0000      66.379447      1806.2766 
 418   0.0000      66.457120      1808.3902 
 419   0.0000      66.466022      1808.6324 
 420   0.0000      66.486054      1809.1775 
 421   0.0000      66.508459      1809.7872 
 422   0.0000      66.538344      1810.6004 
 423   0.0000      66.572930      1811.5415 
 424   0.0000      66.976416      1822.5209 
 425   0.0000      66.989119      1822.8666 
 426   0.0000      66.999999      1823.1627 
 427   0.0000      67.195463      1828.4815 
 428   0.0000      67.520578      1837.3283 
 429   0.0000      67.575606      1838.8257 
 430   0.0000      69.568064      1893.0433 
 431   0.0000      70.074203      1906.8160 
 432   0.0000     142.450588      3876.2776 
 433   0.0000     143.350315      3900.7604 
 434   0.0000     144.085484      3920.7654 

                 SPIN DOWN ORBITALS
  NO   OCC          E(Eh)            E(eV) 
   0   1.0000     -19.042139      -518.1629 
   1   1.0000     -18.868556      -513.4395 
   2   1.0000     -18.868556      -513.4395 
   3   1.0000      -1.260302       -34.2946 
   4   1.0000      -1.008295       -27.4371 
   5   1.0000      -0.715602       -19.4725 
   6   1.0000      -0.546846       -14.8804 
   7   1.0000      -0.542008       -14.7488 
   8   1.0000      -0.531377       -14.4595 
   9   1.0000      -0.336532        -9.1575 
  10   1.0000      -0.297152        -8.0859 
  11   1.0000      -0.294090        -8.0026 
  12   0.0000      -0.228328        -6.2131 
  13   0.0000      -0.004201        -0.1143 
  14   0.0000       0.002770         0.0754 
  15   0.0000       0.016668         0.4536 
  16   0.0000       0.025156         0.6845 
  17   0.0000       0.027812         0.7568 
  18   0.0000       0.054100         1.4721 
  19   0.0000       0.055690         1.5154 
  20   0.0000       0.055748         1.5170 
  21   0.0000       0.060979         1.6593 
  22   0.0000       0.061283         1.6676 
  23   0.0000       0.073459         1.9989 
  24   0.0000       0.089372         2.4319 
  25   0.0000       0.104460         2.8425 
  26   0.0000       0.115559         3.1445 
  27   0.0000       0.135840         3.6964 
  28   0.0000       0.151062         4.1106 
  29   0.0000       0.154921         4.2156 
  30   0.0000       0.159219         4.3326 
  31   0.0000       0.160884         4.3779 
  32   0.0000       0.162854         4.4315 
  33   0.0000       0.179105         4.8737 
  34   0.0000       0.182537         4.9671 
  35   0.0000       0.182894         4.9768 
  36   0.0000       0.186815         5.0835 
  37   0.0000       0.207827         5.6553 
  38   0.0000       0.215472         5.8633 
  39   0.0000       0.222002         6.0410 
  40   0.0000       0.224692         6.1142 
  41   0.0000       0.247494         6.7347 
  42   0.0000       0.257457         7.0058 
  43   0.0000       0.258612         7.0372 
  44   0.0000       0.261983         7.1289 
  45   0.0000       0.283905         7.7254 
  46   0.0000       0.298217         8.1149 
  47   0.0000       0.298700         8.1280 
  48   0.0000       0.327694         8.9170 
  49   0.0000       0.329750         8.9729 
  50   0.0000       0.346214         9.4209 
  51   0.0000       0.362890         9.8747 
  52   0.0000       0.366745         9.9796 
  53   0.0000       0.385244        10.4830 
  54   0.0000       0.388220        10.5640 
  55   0.0000       0.388284        10.5657 
  56   0.0000       0.399611        10.8740 
  57   0.0000       0.404579        11.0092 
  58   0.0000       0.408156        11.1065 
  59   0.0000       0.419362        11.4114 
  60   0.0000       0.421935        11.4814 
  61   0.0000       0.424897        11.5620 
  62   0.0000       0.433828        11.8051 
  63   0.0000       0.436269        11.8715 
  64   0.0000       0.437967        11.9177 
  65   0.0000       0.453698        12.3457 
  66   0.0000       0.456865        12.4319 
  67   0.0000       0.459821        12.5124 
  68   0.0000       0.486076        13.2268 
  69   0.0000       0.512111        13.9353 
  70   0.0000       0.515490        14.0272 
  71   0.0000       0.522081        14.2065 
  72   0.0000       0.527068        14.3422 
  73   0.0000       0.545757        14.8508 
  74   0.0000       0.546239        14.8639 
  75   0.0000       0.580418        15.7940 
  76   0.0000       0.581904        15.8344 
  77   0.0000       0.594065        16.1653 
  78   0.0000       0.611042        16.6273 
  79   0.0000       0.620207        16.8767 
  80   0.0000       0.629556        17.1311 
  81   0.0000       0.651795        17.7363 
  82   0.0000       0.662182        18.0189 
  83   0.0000       0.671875        18.2826 
  84   0.0000       0.673912        18.3381 
  85   0.0000       0.679068        18.4784 
  86   0.0000       0.684505        18.6263 
  87   0.0000       0.717387        19.5211 
  88   0.0000       0.718217        19.5437 
  89   0.0000       0.724685        19.7197 
  90   0.0000       0.732125        19.9221 
  91   0.0000       0.735370        20.0104 
  92   0.0000       0.738248        20.0887 
  93   0.0000       0.751296        20.4438 
  94   0.0000       0.773332        21.0434 
  95   0.0000       0.779012        21.1980 
  96   0.0000       0.780847        21.2479 
  97   0.0000       0.785910        21.3857 
  98   0.0000       0.795176        21.6378 
  99   0.0000       0.818133        22.2625 
 100   0.0000       0.838027        22.8039 
 101   0.0000       0.844277        22.9739 
 102   0.0000       0.847982        23.0748 
 103   0.0000       0.851565        23.1723 
 104   0.0000       0.856618        23.3098 
 105   0.0000       0.869383        23.6571 
 106   0.0000       0.875518        23.8241 
 107   0.0000       0.880964        23.9723 
 108   0.0000       0.886625        24.1263 
 109   0.0000       0.899855        24.4863 
 110   0.0000       0.911878        24.8135 
 111   0.0000       0.923951        25.1420 
 112   0.0000       0.925184        25.1755 
 113   0.0000       0.929287        25.2872 
 114   0.0000       0.932355        25.3707 
 115   0.0000       0.937961        25.5232 
 116   0.0000       0.951569        25.8935 
 117   0.0000       0.955468        25.9996 
 118   0.0000       0.957487        26.0545 
 119   0.0000       0.972072        26.4514 
 120   0.0000       0.996981        27.1292 
 121   0.0000       1.003716        27.3125 
 122   0.0000       1.006336        27.3838 
 123   0.0000       1.008623        27.4460 
 124   0.0000       1.013153        27.5693 
 125   0.0000       1.044980        28.4354 
 126   0.0000       1.051183        28.6041 
 127   0.0000       1.060892        28.8683 
 128   0.0000       1.067886        29.0586 
 129   0.0000       1.078874        29.3576 
 130   0.0000       1.080754        29.4088 
 131   0.0000       1.101782        29.9810 
 132   0.0000       1.105616        30.0853 
 133   0.0000       1.167846        31.7787 
 134   0.0000       1.172737        31.9118 
 135   0.0000       1.198677        32.6177 
 136   0.0000       1.201543        32.6957 
 137   0.0000       1.211988        32.9799 
 138   0.0000       1.215252        33.0687 
 139   0.0000       1.223112        33.2826 
 140   0.0000       1.232645        33.5420 
 141   0.0000       1.243051        33.8252 
 142   0.0000       1.249571        34.0025 
 143   0.0000       1.267999        34.5040 
 144   0.0000       1.272725        34.6326 
 145   0.0000       1.279721        34.8230 
 146   0.0000       1.286277        35.0014 
 147   0.0000       1.289612        35.0921 
 148   0.0000       1.291338        35.1391 
 149   0.0000       1.317497        35.8509 
 150   0.0000       1.331540        36.2330 
 151   0.0000       1.333121        36.2761 
 152   0.0000       1.354332        36.8532 
 153   0.0000       1.364874        37.1401 
 154   0.0000       1.383862        37.6568 
 155   0.0000       1.397102        38.0171 
 156   0.0000       1.410157        38.3723 
 157   0.0000       1.462010        39.7833 
 158   0.0000       1.485597        40.4251 
 159   0.0000       1.570641        42.7393 
 160   0.0000       1.683509        45.8106 
 161   0.0000       1.684246        45.8307 
 162   0.0000       1.688789        45.9543 
 163   0.0000       1.695441        46.1353 
 164   0.0000       1.752484        47.6875 
 165   0.0000       1.770817        48.1864 
 166   0.0000       1.792103        48.7656 
 167   0.0000       1.803173        49.0668 
 168   0.0000       1.841035        50.0971 
 169   0.0000       1.879775        51.1513 
 170   0.0000       1.895929        51.5908 
 171   0.0000       1.910198        51.9791 
 172   0.0000       1.915152        52.1139 
 173   0.0000       1.947261        52.9877 
 174   0.0000       1.997822        54.3635 
 175   0.0000       2.001926        54.4752 
 176   0.0000       2.046752        55.6950 
 177   0.0000       2.057401        55.9847 
 178   0.0000       2.067052        56.2474 
 179   0.0000       2.158562        58.7375 
 180   0.0000       2.158646        58.7397 
 181   0.0000       2.185981        59.4836 
 182   0.0000       2.223432        60.5027 
 183   0.0000       2.238998        60.9262 
 184   0.0000       2.247179        61.1488 
 185   0.0000       2.269360        61.7524 
 186   0.0000       2.282323        62.1052 
 187   0.0000       2.299453        62.5713 
 188   0.0000       2.311949        62.9113 
 189   0.0000       2.367753        64.4298 
 190   0.0000       2.403713        65.4084 
 191   0.0000       2.447200        66.5917 
 192   0.0000       2.449296        66.6487 
 193   0.0000       2.470424        67.2237 
 194   0.0000       2.528524        68.8046 
 195   0.0000       2.610768        71.0426 
 196   0.0000       2.803353        76.2831 
 197   0.0000       2.830255        77.0151 
 198   0.0000       2.831492        77.0488 
 199   0.0000       3.036595        82.6300 
 200   0.0000       3.069737        83.5318 
 201   0.0000       3.132240        85.2326 
 202   0.0000       3.193194        86.8912 
 203   0.0000       3.205948        87.2383 
 204   0.0000       3.243095        88.2491 
 205   0.0000       3.243754        88.2670 
 206   0.0000       3.429206        93.3134 
 207   0.0000       3.835171       104.3603 
 208   0.0000       3.848551       104.7244 
 209   0.0000       3.860154       105.0401 
 210   0.0000       3.936082       107.1062 
 211   0.0000       4.062997       110.5598 
 212   0.0000       4.068176       110.7007 
 213   0.0000       4.087235       111.2193 
 214   0.0000       4.157860       113.1411 
 215   0.0000       4.190654       114.0335 
 216   0.0000       4.216748       114.7436 
 217   0.0000       4.224475       114.9538 
 218   0.0000       4.253316       115.7386 
 219   0.0000       4.289742       116.7298 
 220   0.0000       4.321284       117.5881 
 221   0.0000       4.382970       119.2667 
 222   0.0000       4.386268       119.3564 
 223   0.0000       4.433634       120.6453 
 224   0.0000       4.466887       121.5502 
 225   0.0000       4.495227       122.3213 
 226   0.0000       4.552164       123.8707 
 227   0.0000       4.585617       124.7810 
 228   0.0000       4.587511       124.8325 
 229   0.0000       4.697623       127.8288 
 230   0.0000       4.838756       131.6692 
 231   0.0000       4.910839       133.6307 
 232   0.0000       4.929229       134.1311 
 233   0.0000       5.002671       136.1296 
 234   0.0000       5.024714       136.7294 
 235   0.0000       5.076066       138.1268 
 236   0.0000       5.079515       138.2206 
 237   0.0000       5.181675       141.0005 
 238   0.0000       5.193568       141.3242 
 239   0.0000       5.258697       143.0964 
 240   0.0000       5.287577       143.8823 
 241   0.0000       5.332741       145.1113 
 242   0.0000       5.345935       145.4703 
 243   0.0000       5.367476       146.0564 
 244   0.0000       5.469985       148.8459 
 245   0.0000       5.486689       149.3004 
 246   0.0000       5.532189       150.5385 
 247   0.0000       5.680726       154.5804 
 248   0.0000       5.688707       154.7976 
 249   0.0000       5.766016       156.9013 
 250   0.0000       5.830825       158.6648 
 251   0.0000       5.854283       159.3031 
 252   0.0000       5.925792       161.2490 
 253   0.0000       5.939801       161.6302 
 254   0.0000       5.955211       162.0495 
 255   0.0000       5.966391       162.3537 
 256   0.0000       5.998405       163.2249 
 257   0.0000       6.123204       166.6209 
 258   0.0000       6.173417       167.9872 
 259   0.0000       6.185037       168.3034 
 260   0.0000       6.241910       169.8510 
 261   0.0000       6.319020       171.9493 
 262   0.0000       6.404019       174.2622 
 263   0.0000       6.459863       175.7818 
 264   0.0000       6.811552       185.3517 
 265   0.0000       6.948816       189.0869 
 266   0.0000       7.008992       190.7244 
 267   0.0000       7.078534       192.6167 
 268   0.0000       7.129799       194.0117 
 269   0.0000       7.177911       195.3209 
 270   0.0000       7.333312       199.5496 
 271   0.0000       7.619181       207.3284 
 272   0.0000       7.650339       208.1763 
 273   0.0000       7.831444       213.1044 
 274   0.0000       7.934863       215.9186 
 275   0.0000       8.052655       219.1239 
 276   0.0000       8.412147       228.9062 
 277   0.0000       8.437517       229.5965 
 278   0.0000       8.655342       235.5238 
 279   0.0000       8.678630       236.1575 
 280   0.0000       9.044932       246.1251 
 281   0.0000       9.073586       246.9048 
 282   0.0000       9.184952       249.9352 
 283   0.0000       9.237881       251.3755 
 284   0.0000       9.249410       251.6892 
 285   0.0000       9.347439       254.3567 
 286   0.0000       9.384075       255.3537 
 287   0.0000       9.422918       256.4106 
 288   0.0000       9.502318       258.5712 
 289   0.0000       9.507453       258.7110 
 290   0.0000       9.614297       261.6183 
 291   0.0000       9.925627       270.0901 
 292   0.0000      10.037001       273.1207 
 293   0.0000      10.173234       276.8278 
 294   0.0000      10.215290       277.9722 
 295   0.0000      10.605449       288.5889 
 296   0.0000      10.688714       290.8547 
 297   0.0000      10.818783       294.3940 
 298   0.0000      10.834027       294.8089 
 299   0.0000      10.948753       297.9307 
 300   0.0000      10.999056       299.2995 
 301   0.0000      11.061622       301.0020 
 302   0.0000      11.099147       302.0231 
 303   0.0000      11.106480       302.2227 
 304   0.0000      11.209384       305.0228 
 305   0.0000      11.221534       305.3535 
 306   0.0000      11.247627       306.0635 
 307   0.0000      11.341867       308.6279 
 308   0.0000      11.347010       308.7678 
 309   0.0000      11.348739       308.8149 
 310   0.0000      11.502285       312.9931 
 311   0.0000      11.577969       315.0526 
 312   0.0000      11.602567       315.7219 
 313   0.0000      11.627592       316.4029 
 314   0.0000      11.722603       318.9882 
 315   0.0000      11.922173       324.4188 
 316   0.0000      11.971102       325.7502 
 317   0.0000      11.979476       325.9781 
 318   0.0000      11.981740       326.0397 
 319   0.0000      11.982077       326.0489 
 320   0.0000      11.982774       326.0678 
 321   0.0000      11.995254       326.4075 
 322   0.0000      12.040870       327.6487 
 323   0.0000      12.099729       329.2504 
 324   0.0000      12.126036       329.9662 
 325   0.0000      12.394924       337.2830 
 326   0.0000      12.445602       338.6620 
 327   0.0000      12.480304       339.6063 
 328   0.0000      12.564676       341.9022 
 329   0.0000      12.603056       342.9466 
 330   0.0000      12.606579       343.0424 
 331   0.0000      12.615632       343.2888 
 332   0.0000      12.707561       345.7903 
 333   0.0000      12.717900       346.0717 
 334   0.0000      12.733818       346.5048 
 335   0.0000      12.747981       346.8902 
 336   0.0000      12.755798       347.1029 
 337   0.0000      12.764098       347.3288 
 338   0.0000      12.771597       347.5328 
 339   0.0000      12.784005       347.8705 
 340   0.0000      12.787596       347.9682 
 341   0.0000      13.056651       355.2895 
 342   0.0000      13.120297       357.0214 
 343   0.0000      13.145853       357.7169 
 344   0.0000      13.368961       363.7879 
 345   0.0000      13.427699       365.3863 
 346   0.0000      13.477355       366.7375 
 347   0.0000      13.507604       367.5606 
 348   0.0000      13.688470       372.4822 
 349   0.0000      13.894908       378.0997 
 350   0.0000      14.383266       391.3886 
 351   0.0000      14.612794       397.6343 
 352   0.0000      14.704691       400.1350 
 353   0.0000      15.102711       410.9657 
 354   0.0000      15.152644       412.3244 
 355   0.0000      15.331846       417.2007 
 356   0.0000      15.536589       422.7721 
 357   0.0000      16.772325       456.3982 
 358   0.0000      16.852299       458.5744 
 359   0.0000      16.926968       460.6062 
 360   0.0000      16.937089       460.8816 
 361   0.0000      16.937362       460.8891 
 362   0.0000      16.942080       461.0174 
 363   0.0000      17.048316       463.9083 
 364   0.0000      17.062926       464.3058 
 365   0.0000      17.085245       464.9132 
 366   0.0000      17.141811       466.4524 
 367   0.0000      17.169887       467.2164 
 368   0.0000      17.227031       468.7713 
 369   0.0000      17.229484       468.8381 
 370   0.0000      17.295181       470.6258 
 371   0.0000      17.350076       472.1196 
 372   0.0000      17.595640       478.8017 
 373   0.0000      17.790316       484.0991 
 374   0.0000      17.894401       486.9314 
 375   0.0000      17.907819       487.2965 
 376   0.0000      18.006349       489.9777 
 377   0.0000      18.259508       496.8665 
 378   0.0000      18.429067       501.4804 
 379   0.0000      18.546445       504.6744 
 380   0.0000      18.592197       505.9194 
 381   0.0000      18.610050       506.4052 
 382   0.0000      18.627201       506.8719 
 383   0.0000      18.786554       511.2081 
 384   0.0000      18.839628       512.6524 
 385   0.0000      18.876016       513.6425 
 386   0.0000      18.986872       516.6591 
 387   0.0000      19.342613       526.3393 
 388   0.0000      19.476993       529.9959 
 389   0.0000      19.632156       534.2181 
 390   0.0000      22.833815       621.3397 
 391   0.0000      22.938136       624.1784 
 392   0.0000      22.948169       624.4514 
 393   0.0000      22.953501       624.5965 
 394   0.0000      22.988438       625.5472 
 395   0.0000      23.002240       625.9228 
 396   0.0000      23.056084       627.3879 
 397   0.0000      23.913908       650.7305 
 398   0.0000      24.014420       653.4656 
 399   0.0000      24.102573       655.8644 
 400   0.0000      24.543483       667.8621 
 401   0.0000      24.809760       675.1079 
 402   0.0000      24.931072       678.4089 
 403   0.0000      27.436591       746.5876 
 404   0.0000      28.047201       763.2031 
 405   0.0000      29.676662       807.5430 
 406   0.0000      30.565583       831.7318 
 407   0.0000      31.125821       846.9767 
 408   0.0000      31.604238       859.9950 
 409   0.0000      31.849493       866.6688 
 410   0.0000      31.933052       868.9425 
 411   0.0000      31.947746       869.3424 
 412   0.0000      31.953279       869.4929 
 413   0.0000      33.139618       901.7749 
 414   0.0000      33.735928       918.0013 
 415   0.0000      34.162494       929.6087 
 416   0.0000      34.920337       950.2307 
 417   0.0000      66.379447      1806.2766 
 418   0.0000      66.457120      1808.3902 
 419   0.0000      66.466022      1808.6324 
 420   0.0000      66.486054      1809.1775 
 421   0.0000      66.508459      1809.7872 
 422   0.0000      66.538344      1810.6004 
 423   0.0000      66.572930      1811.5415 
 424   0.0000      66.976416      1822.5209 
 425   0.0000      66.989119      1822.8666 
 426   0.0000      66.999999      1823.1627 
 427   0.0000      67.195463      1828.4815 
 428   0.0000      67.520578      1837.3283 
 429   0.0000      67.575606      1838.8257 
 430   0.0000      69.568064      1893.0433 
 431   0.0000      70.074203      1906.8160 
 432   0.0000     142.450588      3876.2776 
 433   0.0000     143.350315      3900.7604 
 434   0.0000     144.085484      3920.7654 

                    ********************************
                    * MULLIKEN POPULATION ANALYSIS *
                    ********************************

--------------------------------------------
MULLIKEN ATOMIC CHARGES AND SPIN POPULATIONS
--------------------------------------------
   0 O :    0.337372    0.000000
   1 O :   -0.168685    0.000000
   2 O :   -0.168688   -0.000000
Sum of atomic charges         :    0.0000000
Sum of atomic spin populations:   -0.0000000

-----------------------------------------------------
MULLIKEN REDUCED ORBITAL CHARGES AND SPIN POPULATIONS
-----------------------------------------------------
CHARGE
  0 O s       :     3.750251  s :     3.750251
      pz      :     1.408555  p :     3.687094
      px      :     1.335771
      py      :     0.942768
      dz2     :     0.043771  d :     0.202604
      dxz     :     0.007906
      dyz     :     0.056686
      dx2y2   :     0.037090
      dxy     :     0.057151
      f0      :     0.001133  f :     0.020924
      f+1     :     0.000019
      f-1     :     0.010370
      f+2     :     0.001212
      f-2     :     0.005964
      f+3     :     0.001389
      f-3     :     0.000837
      g0      :     0.000652  g :     0.001620
      g+1     :     0.000019
      g-1     :     0.000457
      g+2     :     0.000463
      g-2     :    -0.000074
      g+3     :     0.000300
      g-3     :    -0.000123
      g+4     :    -0.000038
      g-4     :    -0.000037
      h0      :     0.000163  h :     0.000136
      h+1     :     0.000003
      h-1     :    -0.000009
      h+2     :     0.000086
      h-2     :     0.000036
      h+3     :     0.000002
      h-3     :    -0.000141
      h+4     :    -0.000003
      h-4     :     0.000105
      h+5     :    -0.000028
      h-5     :    -0.000079
  1 O s       :     3.995139  s :     3.995139
      pz      :     1.654595  p :     4.118928
      px      :     1.278451
      py      :     1.185883
      dz2     :     0.007301  d :     0.048031
      dxz     :     0.003943
      dyz     :     0.013955
      dx2y2   :     0.010893
      dxy     :     0.011940
      f0      :     0.000483  f :     0.007241
      f+1     :    -0.000123
      f-1     :     0.001847
      f+2     :     0.002203
      f-2     :     0.001659
      f+3     :     0.000474
      f-3     :     0.000698
      g0      :    -0.000075  g :    -0.000348
      g+1     :     0.000029
      g-1     :    -0.000200
      g+2     :    -0.000147
      g-2     :    -0.000166
      g+3     :     0.000236
      g-3     :     0.000533
      g+4     :    -0.000024
      g-4     :    -0.000534
      h0      :    -0.000073  h :    -0.000307
      h+1     :    -0.000001
      h-1     :    -0.000046
      h+2     :    -0.000028
      h-2     :     0.000007
      h+3     :    -0.000049
      h-3     :    -0.000048
      h+4     :     0.000075
      h-4     :     0.000021
      h+5     :    -0.000151
      h-5     :    -0.000013
  2 O s       :     3.995143  s :     3.995143
      pz      :     1.654595  p :     4.118928
      px      :     1.278452
      py      :     1.185881
      dz2     :     0.007301  d :     0.048031
      dxz     :     0.003943
      dyz     :     0.013955
      dx2y2   :     0.010892
      dxy     :     0.011940
      f0      :     0.000483  f :     0.007241
      f+1     :    -0.000123
      f-1     :     0.001847
      f+2     :     0.002203
      f-2     :     0.001659
      f+3     :     0.000474
      f-3     :     0.000698
      g0      :    -0.000075  g :    -0.000348
      g+1     :     0.000029
      g-1     :    -0.000200
      g+2     :    -0.000147
      g-2     :    -0.000166
      g+3     :     0.000236
      g-3     :     0.000533
      g+4     :    -0.000024
      g-4     :    -0.000534
      h0      :    -0.000073  h :    -0.000307
      h+1     :    -0.000001
      h-1     :    -0.000046
      h+2     :    -0.000028
      h-2     :     0.000007
      h+3     :    -0.000049
      h-3     :    -0.000048
      h+4     :     0.000075
      h-4     :     0.000021
      h+5     :    -0.000151
      h-5     :    -0.000013

SPIN
  0 O s       :     0.000000  s :     0.000000
      pz      :    -0.000000  p :     0.000000
      px      :     0.000000
      py      :     0.000000
      dz2     :    -0.000000  d :     0.000000
      dxz     :     0.000000
      dyz     :    -0.000000
      dx2y2   :     0.000000
      dxy     :    -0.000000
      f0      :     0.000000  f :     0.000000
      f+1     :    -0.000000
      f-1     :     0.000000
      f+2     :     0.000000
      f-2     :    -0.000000
      f+3     :     0.000000
      f-3     :     0.000000
      g0      :    -0.000000  g :     0.000000
      g+1     :     0.000000
      g-1     :     0.000000
      g+2     :    -0.000000
      g-2     :    -0.000000
      g+3     :     0.000000
      g-3     :     0.000000
      g+4     :     0.000000
      g-4     :    -0.000000
      h0      :    -0.000000  h :     0.000000
      h+1     :     0.000000
      h-1     :     0.000000
      h+2     :    -0.000000
      h-2     :    -0.000000
      h+3     :     0.000000
      h-3     :     0.000000
      h+4     :     0.000000
      h-4     :    -0.000000
      h+5     :     0.000000
      h-5     :     0.000000
  1 O s       :     0.000000  s :     0.000000
      pz      :    -0.000000  p :    -0.000000
      px      :    -0.000000
      py      :    -0.000000
      dz2     :     0.000000  d :    -0.000000
      dxz     :    -0.000000
      dyz     :    -0.000000
      dx2y2   :    -0.000000
      dxy     :    -0.000000
      f0      :    -0.000000  f :     0.000000
      f+1     :     0.000000
      f-1     :     0.000000
      f+2     :    -0.000000
      f-2     :    -0.000000
      f+3     :    -0.000000
      f-3     :     0.000000
      g0      :     0.000000  g :     0.000000
      g+1     :     0.000000
      g-1     :    -0.000000
      g+2     :     0.000000
      g-2     :     0.000000
      g+3     :    -0.000000
      g-3     :    -0.000000
      g+4     :     0.000000
      g-4     :    -0.000000
      h0      :    -0.000000  h :    -0.000000
      h+1     :    -0.000000
      h-1     :    -0.000000
      h+2     :    -0.000000
      h-2     :     0.000000
      h+3     :     0.000000
      h-3     :     0.000000
      h+4     :    -0.000000
      h-4     :    -0.000000
      h+5     :    -0.000000
      h-5     :     0.000000
  2 O s       :    -0.000000  s :    -0.000000
      pz      :    -0.000000  p :    -0.000000
      px      :    -0.000000
      py      :    -0.000000
      dz2     :    -0.000000  d :    -0.000000
      dxz     :    -0.000000
      dyz     :    -0.000000
      dx2y2   :    -0.000000
      dxy     :    -0.000000
      f0      :    -0.000000  f :    -0.000000
      f+1     :    -0.000000
      f-1     :    -0.000000
      f+2     :    -0.000000
      f-2     :    -0.000000
      f+3     :    -0.000000
      f-3     :    -0.000000
      g0      :    -0.000000  g :    -0.000000
      g+1     :    -0.000000
      g-1     :    -0.000000
      g+2     :    -0.000000
      g-2     :     0.000000
      g+3     :    -0.000000
      g-3     :    -0.000000
      g+4     :    -0.000000
      g-4     :    -0.000000
      h0      :    -0.000000  h :    -0.000000
      h+1     :     0.000000
      h-1     :    -0.000000
      h+2     :    -0.000000
      h-2     :    -0.000000
      h+3     :     0.000000
      h-3     :    -0.000000
      h+4     :    -0.000000
      h-4     :    -0.000000
      h+5     :    -0.000000
      h-5     :    -0.000000


                     *******************************
                     * LOEWDIN POPULATION ANALYSIS *
                     *******************************

-------------------------------------------
LOEWDIN ATOMIC CHARGES AND SPIN POPULATIONS
-------------------------------------------
   0 O :   -0.178168    0.000000
   1 O :    0.089085    0.000000
   2 O :    0.089084   -0.000000

----------------------------------------------------
LOEWDIN REDUCED ORBITAL CHARGES AND SPIN POPULATIONS
----------------------------------------------------
CHARGE
  0 O s       :     3.132333  s :     3.132333
      pz      :     1.340148  p :     3.590496
      px      :     1.078631
      py      :     1.171717
      dz2     :     0.162988  d :     0.935738
      dxz     :     0.013469
      dyz     :     0.322278
      dx2y2   :     0.226203
      dxy     :     0.210800
      f0      :     0.033978  f :     0.383056
      f+1     :     0.000152
      f-1     :     0.145883
      f+2     :     0.068546
      f-2     :     0.076863
      f+3     :     0.010779
      f-3     :     0.046854
      g0      :     0.009655  g :     0.097729
      g+1     :     0.000207
      g-1     :     0.019816
      g+2     :     0.020936
      g-2     :     0.003004
      g+3     :     0.004629
      g-3     :     0.017079
      g+4     :     0.009299
      g-4     :     0.013104
      h0      :     0.003376  h :     0.038816
      h+1     :     0.000111
      h-1     :     0.003354
      h+2     :     0.005511
      h-2     :     0.000206
      h+3     :     0.000813
      h-3     :     0.004976
      h+4     :     0.005915
      h-4     :     0.008978
      h+5     :     0.001823
      h-5     :     0.003755
  1 O s       :     3.284970  s :     3.284970
      pz      :     1.426625  p :     3.745366
      px      :     1.071732
      py      :     1.247009
      dz2     :     0.052190  d :     0.386974
      dxz     :     0.015009
      dyz     :     0.140510
      dx2y2   :     0.107916
      dxy     :     0.071348
      f0      :     0.021308  f :     0.246385
      f+1     :     0.001182
      f-1     :     0.065062
      f+2     :     0.048836
      f-2     :     0.018178
      f+3     :     0.046067
      f-3     :     0.045753
      g0      :     0.012283  g :     0.145690
      g+1     :     0.000353
      g-1     :     0.025428
      g+2     :     0.024684
      g-2     :     0.002725
      g+3     :     0.006156
      g-3     :     0.020412
      g+4     :     0.024670
      g-4     :     0.028979
      h0      :     0.009289  h :     0.101530
      h+1     :     0.000276
      h-1     :     0.010077
      h+2     :     0.017306
      h-2     :     0.000062
      h+3     :     0.003535
      h-3     :     0.012723
      h+4     :     0.011330
      h-4     :     0.002725
      h+5     :     0.019888
      h-5     :     0.014320
  2 O s       :     3.284970  s :     3.284970
      pz      :     1.426625  p :     3.745367
      px      :     1.071733
      py      :     1.247009
      dz2     :     0.052190  d :     0.386974
      dxz     :     0.015009
      dyz     :     0.140510
      dx2y2   :     0.107916
      dxy     :     0.071348
      f0      :     0.021308  f :     0.246386
      f+1     :     0.001182
      f-1     :     0.065062
      f+2     :     0.048836
      f-2     :     0.018178
      f+3     :     0.046067
      f-3     :     0.045753
      g0      :     0.012283  g :     0.145690
      g+1     :     0.000353
      g-1     :     0.025428
      g+2     :     0.024684
      g-2     :     0.002725
      g+3     :     0.006156
      g-3     :     0.020412
      g+4     :     0.024670
      g-4     :     0.028979
      h0      :     0.009289  h :     0.101530
      h+1     :     0.000276
      h-1     :     0.010077
      h+2     :     0.017306
      h-2     :     0.000062
      h+3     :     0.003535
      h-3     :     0.012723
      h+4     :     0.011330
      h-4     :     0.002725
      h+5     :     0.019888
      h-5     :     0.014320

SPIN
  0 O s       :     0.000000  s :     0.000000
      pz      :     0.000000  p :     0.000000
      px      :     0.000000
      py      :    -0.000000
      dz2     :    -0.000000  d :     0.000000
      dxz     :     0.000000
      dyz     :     0.000000
      dx2y2   :     0.000000
      dxy     :    -0.000000
      f0      :    -0.000000  f :     0.000000
      f+1     :    -0.000000
      f-1     :    -0.000000
      f+2     :     0.000000
      f-2     :    -0.000000
      f+3     :     0.000000
      f-3     :     0.000000
      g0      :    -0.000000  g :     0.000000
      g+1     :    -0.000000
      g-1     :    -0.000000
      g+2     :    -0.000000
      g-2     :    -0.000000
      g+3     :     0.000000
      g-3     :     0.000000
      g+4     :     0.000000
      g-4     :     0.000000
      h0      :     0.000000  h :     0.000000
      h+1     :     0.000000
      h-1     :     0.000000
      h+2     :     0.000000
      h-2     :     0.000000
      h+3     :     0.000000
      h-3     :     0.000000
      h+4     :    -0.000000
      h-4     :     0.000000
      h+5     :    -0.000000
      h-5     :    -0.000000
  1 O s       :     0.000000  s :     0.000000
      pz      :    -0.000000  p :    -0.000000
      px      :     0.000000
      py      :    -0.000000
      dz2     :    -0.000000  d :     0.000000
      dxz     :    -0.000000
      dyz     :     0.000000
      dx2y2   :    -0.000000
      dxy     :    -0.000000
      f0      :    -0.000000  f :    -0.000000
      f+1     :     0.000000
      f-1     :    -0.000000
      f+2     :    -0.000000
      f-2     :    -0.000000
      f+3     :     0.000000
      f-3     :     0.000000
      g0      :     0.000000  g :     0.000000
      g+1     :     0.000000
      g-1     :     0.000000
      g+2     :     0.000000
      g-2     :    -0.000000
      g+3     :    -0.000000
      g-3     :    -0.000000
      g+4     :     0.000000
      g-4     :    -0.000000
      h0      :     0.000000  h :    -0.000000
      h+1     :     0.000000
      h-1     :    -0.000000
      h+2     :    -0.000000
      h-2     :    -0.000000
      h+3     :    -0.000000
      h-3     :    -0.000000
      h+4     :     0.000000
      h-4     :    -0.000000
      h+5     :    -0.000000
      h-5     :    -0.000000
  2 O s       :    -0.000000  s :    -0.000000
      pz      :    -0.000000  p :    -0.000000
      px      :    -0.000000
      py      :    -0.000000
      dz2     :    -0.000000  d :    -0.000000
      dxz     :    -0.000000
      dyz     :    -0.000000
      dx2y2   :    -0.000000
      dxy     :    -0.000000
      f0      :     0.000000  f :    -0.000000
      f+1     :     0.000000
      f-1     :    -0.000000
      f+2     :    -0.000000
      f-2     :     0.000000
      f+3     :    -0.000000
      f-3     :    -0.000000
      g0      :     0.000000  g :     0.000000
      g+1     :     0.000000
      g-1     :     0.000000
      g+2     :     0.000000
      g-2     :    -0.000000
      g+3     :    -0.000000
      g-3     :     0.000000
      g+4     :     0.000000
      g-4     :     0.000000
      h0      :     0.000000  h :    -0.000000
      h+1     :     0.000000
      h-1     :    -0.000000
      h+2     :     0.000000
      h-2     :     0.000000
      h+3     :    -0.000000
      h-3     :    -0.000000
      h+4     :     0.000000
      h-4     :     0.000000
      h+5     :     0.000000
      h-5     :    -0.000000


                      *****************************
                      * MAYER POPULATION ANALYSIS *
                      *****************************

  NA   - Mulliken gross atomic population
  ZA   - Total nuclear charge
  QA   - Mulliken gross atomic charge
  VA   - Mayer's total valence
  BVA  - Mayer's bonded valence
  FA   - Mayer's free valence

  ATOM       NA         ZA         QA         VA         BVA        FA
  0 O      7.6626     8.0000     0.3374     2.8204     2.8204     0.0000
  1 O      8.1687     8.0000    -0.1687     1.9988     1.9988     0.0000
  2 O      8.1687     8.0000    -0.1687     1.9988     1.9988     0.0000

  Mayer bond orders larger than 0.1
B(  0-O ,  1-O ) :   1.4102 B(  0-O ,  2-O ) :   1.4102 B(  1-O ,  2-O ) :   0.5886 


-------
TIMINGS
-------

Total SCF time: 0 days 1 hours 31 min 46 sec 

Total time                  ....    5506.456 sec
Sum of individual times     ....    5505.481 sec  (100.0%)

Fock matrix formation       ....    5493.879 sec  ( 99.8%)
  XC integration            ....     146.716 sec  (  2.7% of F)
    Basis function eval.    ....       9.323 sec  (  6.4% of XC)
    Density eval.           ....      32.080 sec  ( 21.9% of XC)
    XC-Functional eval.     ....       1.210 sec  (  0.8% of XC)
    XC-Potential eval.      ....     103.125 sec  ( 70.3% of XC)
Diagonalization             ....       1.860 sec  (  0.0%)
Density matrix formation    ....       0.039 sec  (  0.0%)
Population analysis         ....       0.177 sec  (  0.0%)
Initial guess               ....       5.949 sec  (  0.1%)
Orbital Transformation      ....       0.000 sec  (  0.0%)
Orbital Orthonormalization  ....       0.000 sec  (  0.0%)
DIIS solution               ....       1.014 sec  (  0.0%)
Grid generation             ....       2.563 sec  (  0.0%)

-------------------------   --------------------
FINAL SINGLE POINT ENERGY      -225.340631006212
-------------------------   --------------------


                            ***************************************
                            *     ORCA property calculations      *
                            ***************************************

                                    ---------------------
                                    Active property flags
                                    ---------------------
   (+) Dipole Moment
   (+) Polarizability


------------------------------------------------------------------------------
                       ORCA ELECTRIC PROPERTIES CALCULATION
------------------------------------------------------------------------------

Dipole Moment Calculation                       ... on
Quadrupole Moment Calculation                   ... off
Polarizability Calculation                      ... Analytic (CP-SCF)
GBWName                                         ... o3_pbe.gbw
Electron density file                           ... o3_pbe.scfp.tmp
The origin for moment calculation is the CENTER OF MASS  = ( 0.000000,  0.000000  0.843700)

-------------
DIPOLE MOMENT
-------------
                                X             Y             Z
Electronic contribution:      0.00000       0.00000      -0.25085
Nuclear contribution   :      0.00000       0.00000      -0.00000
                        -----------------------------------------
Total Dipole Moment    :      0.00000       0.00000      -0.25085
                        -----------------------------------------
Magnitude (a.u.)       :      0.25085
Magnitude (Debye)      :      0.63760



--------------------
Rotational spectrum 
--------------------
 
Rotational constants in cm-1:     3.523990     0.444649     0.394830 
Rotational constants in MHz : 105646.576140 13330.237990 11836.709641 

 Dipole components along the rotational axes: 
x,y,z [a.u.] :     0.000003    -0.250845     0.000000 
x,y,z [Debye]:     0.000007    -0.637598     0.000000 

 
Transforming and storing MO dipole integrals   ... done

                ... starting polarizability calculation

Opening the Dipole integral file               ... (o3_pbe.dmo.tmp) done
Reading Dipole-MO integrals                    ... done
Solving CP-SCF equations                       ... 
------------------------------------------------------------------------------
                           ORCA CP-SCF CALCULATION
------------------------------------------------------------------------------

Input orbitals are from        ... o3_pbe.gbw
Input Perturbation             ... o3_pbe.cpv.tmp
Wavefunction output            ... o3_pbe.cpu.tmp
Perturbation mode              ... Real perturbation (singlet)
Solver                         ... POPLE
Max. number of iterations      ... 200
Convergence tolerance          ... 1.000e-06
Integral handling              ... Direct
Number of perturbations        ... 3
Number of operators            ... 2
Orbital ranges used for CP-SCF:
 Operator 0:  Orbitals   0... 11  to  12...434
 Operator 1:  Orbitals   0... 11  to  12...434
DFT calculation                         ... on
Exchange functional (SCF)               ... PBE
Exchange functional (CP-SCF)            ... PBE
   PBE kappa parameter  XKappa (SCF)    ...  0.804000
   PBE kappa parameter  XKappa (CP-SCF) ...  0.804000
   PBE mue parameter   XMuePBE (SCF)    ...  0.219520
   PBE mue parameter   XMuePBE (CP-SCF) ...  0.219520
Correlation functional (SCF)            ... PBE
Correlation functional (CP-SCF)         ... PBE
   PBE beta parameter CBetaPBE (SCF)    ...  0.066725
   PBE beta parameter CBetaPBE (CP-SCF) ...  0.066725
 LDA part of GGA corr.  LDAOpt (SCF)    ... PW91-LDA
 LDA part of GGA corr.  LDAOpt (CP-SCF) ... PW91-LDA
Variables per vector in CP-SCF ... 10152
Number of vectors sought       ... 3
Recalculating density on grid  ... done
Calculating the xc-kernel      ... done
     CP-SCF ITERATION   0: 
     CP-SCF ITERATION   1:      0.244811874391
     CP-SCF ITERATION   2:      0.002948460931
     CP-SCF ITERATION   3:      0.000176030754
     CP-SCF ITERATION   4:      0.000017211929
     CP-SCF ITERATION   5:      0.000003386478
     CP-SCF ITERATION   6:      0.000000067968
done
Reading CP-SCF coefficients                    ... done
Doing the polarizability tensor   ... done
Cleaning up                                    ... done

-------------------------
THE POLARIZABILITY TENSOR
-------------------------

The raw cartesian tensor (atomic units):
   12.33805     -0.00000      0.00000  
   -0.00000     31.39193     -0.00004  
    0.00000     -0.00004     15.05797  
diagonalized tensor: 
   12.33805     15.05797     31.39193  

    1.00000     -0.00000     -0.00000  
    0.00000     -0.00000      1.00000  
   -0.00000     -1.00000     -0.00000  

Isotropic polarizability :  19.59598


Timings for individual modules:

Sum of individual times         ...    10404.486 sec (= 173.408 min)
GTO integral calculation        ...        1.582 sec (=   0.026 min)   0.0 %
SCF iterations                  ...     5506.475 sec (=  91.775 min)  52.9 %
Solution of CP-SCF eqns.        ...     4896.430 sec (=  81.607 min)  47.1 %
                             ****ORCA TERMINATED NORMALLY****
TOTAL RUN TIME: 0 days 2 hours 53 minutes 25 seconds 29 msec
