
                                 *****************
                                 * O   R   C   A *
                                 *****************

           --- An Ab Initio, DFT and Semiempirical electronic structure package ---

                  #######################################################
                  #                        -***-                        #
                  #          Department of theory and spectroscopy      #
                  #               Directorship: Frank Neese             #
                  #        Max Planck Institute fuer Kohlenforschung    #
                  #                Kaiser Wilhelm Platz 1               #
                  #                 D-45470 Muelheim/Ruhr               #
                  #                      Germany                        #
                  #                                                     #
                  #                  All rights reserved                #
                  #                        -***-                        #
                  #######################################################


                         Program Version 4.1.2  - RELEASE  -


 With contributions from (in alphabetic order):
   Daniel Aravena         : Magnetic Properties
   Michael Atanasov       : Ab Initio Ligand Field Theory
   Alexander A. Auer      : GIAO ZORA
   Ute Becker             : Parallelization
   Giovanni Bistoni       : ED, Open-shell LED
   Martin Brehm           : Molecular dynamics
   Dmytro Bykov           : SCF Hessian
   Vijay G. Chilkuri      : MRCI spin determinant printing
   Dipayan Datta          : RHF DLPNO-CCSD density
   Achintya Kumar Dutta   : EOM-CC, STEOM-CC
   Dmitry Ganyushin       : Spin-Orbit,Spin-Spin,Magnetic field MRCI
   Miquel Garcia          : C-PCM Hessian
   Yang Guo               : DLPNO-NEVPT2, CIM, IAO-localization
   Andreas Hansen         : Spin unrestricted coupled pair/coupled cluster methods
   Benjamin Helmich-Paris : CASSCF linear response (MC-RPA)
   Lee Huntington         : MR-EOM, pCC
   Robert Izsak           : Overlap fitted RIJCOSX, COSX-SCS-MP3, EOM
   Christian Kollmar      : KDIIS, OOCD, Brueckner-CCSD(T), CCSD density
   Simone Kossmann        : Meta GGA functionals, TD-DFT gradient, OOMP2, MP2 Hessian
   Martin Krupicka        : AUTO-CI
   Lucas Lang             : DCDCAS
   Dagmar Lenk            : GEPOL surface, SMD
   Dimitrios Liakos       : Extrapolation schemes; parallel MDCI
   Dimitrios Manganas     : ROCIS; embedding schemes
   Dimitrios Pantazis     : SARC Basis sets
   Taras Petrenko         : DFT Hessian,TD-DFT gradient, ASA, ECA, R-Raman, ABS, FL, XAS/XES, NRVS
   Peter Pinski           : DLPNO-MP2, DLPNO-MP2 Gradient
   Christoph Reimann      : Effective Core Potentials
   Marius Retegan         : Local ZFS, SOC
   Christoph Riplinger    : Optimizer, TS searches, QM/MM, DLPNO-CCSD(T), (RO)-DLPNO pert. Triples
   Tobias Risthaus        : Range-separated hybrids, TD-DFT gradient, RPA, STAB
   Michael Roemelt        : Restricted open shell CIS
   Masaaki Saitow         : Open-shell DLPNO
   Barbara Sandhoefer     : DKH picture change effects
   Avijit Sen             : IP-ROCIS
   Kantharuban Sivalingam : CASSCF convergence, NEVPT2, FIC-MRCI
   Bernardo de Souza      : ESD, SOC TD-DFT
   Georgi Stoychev        : AutoAux, RI-MP2 NMR
   Willem Van den Heuvel  : Paramagnetic NMR
   Boris Wezisla          : Elementary symmetry handling
   Frank Wennmohs         : Technical directorship


 We gratefully acknowledge several colleagues who have allowed us to
 interface, adapt or use parts of their codes:
   Stefan Grimme, W. Hujo, H. Kruse,             : VdW corrections, initial TS optimization,
                  C. Bannwarth                     DFT functionals, gCP, sTDA/sTD-DF
   Ed Valeev                                     : LibInt (2-el integral package), F12 methods
   Garnet Chan, S. Sharma, J. Yang, R. Olivares  : DMRG
   Ulf Ekstrom                                   : XCFun DFT Library
   Mihaly Kallay                                 : mrcc  (arbitrary order and MRCC methods)
   Andreas Klamt, Michael Diedenhofen            : otool_cosmo (COSMO solvation model)
   Jiri Pittner, Ondrej Demel                    : Mk-CCSD
   Frank Weinhold                                : gennbo (NPA and NBO analysis)
   Christopher J. Cramer and Donald G. Truhlar   : smd solvation model
   Lars Goerigk                                  : TD-DFT with DH, B97 family of functionals
   V. Asgeirsson, H. Jonsson                     : NEB implementation
   FAccTs GmbH                                   : IRC, NEB, NEB-TS, Multilevel


 Your calculation uses the libint2 library for the computation of 2-el integrals
 For citations please refer to: http://libint.valeyev.net

 This ORCA versions uses:
   CBLAS   interface :  Fast vector & matrix operations
   LAPACKE interface :  Fast linear algebra routines
   SCALAPACK package :  Parallel linear algebra routines


----- Orbital basis set information -----
Your calculation utilizes the basis: aug-pc-4
   H, C-F              : F. Jensen, J. Chem. Phys. 115, 9113 (2001).
                         F. Jensen, J. Chem. Phys. 116, 7372 (2002).
                         F. Jensen, J. Chem. Phys. 117, 9234 (2002).
   Si-Cl               : F. Jensen, T. Helgaker, J. Chem. Phys. 121, 3463 (2004).
   He-B, Ne-Mg, Al, Ar : F. Jensen, J. Phys. Chem. A 111, 11198 (2007).
   K, Ca, Ga-Kr        : F. Jensen, J. Chem. Phys. 136, 094110 (2012).
   Sc-Zn               : F. Jensen, J. Chem. Phys. 138, 014107 (2013).

================================================================================
                                        WARNINGS
                       Please study these warnings very carefully!
================================================================================


INFO   : the flag for use of LIBINT has been found!

================================================================================
                                       INPUT FILE
================================================================================
NAME = ocl2_pbe.inp
|  1> !uks pbe nori aug-pc-4 grid7 nofinalgrid verytightscf
|  2> 
|  3> %maxcore 1500
|  4> 
|  5> %pal nprocs 4 end
|  6> 
|  7> %scf
|  8> 	maxiter 200
|  9> end
| 10> %elprop
| 11> 	dipole true
| 12> 	 polar 1
| 13> 	 maxiter 200
| 14> end
| 15> 
| 16> * xyz 0 1
| 17> O 0.0000 0.0000 0.7788
| 18> Cl 0.0000 1.3966 -0.1832
| 19> Cl 0.0000 -1.3966 -0.1832
| 20> *
| 21> 
| 22>                          ****END OF INPUT****
================================================================================

                       ****************************
                       * Single Point Calculation *
                       ****************************

---------------------------------
CARTESIAN COORDINATES (ANGSTROEM)
---------------------------------
  O      0.000000    0.000000    0.778800
  Cl     0.000000    1.396600   -0.183200
  Cl     0.000000   -1.396600   -0.183200

----------------------------
CARTESIAN COORDINATES (A.U.)
----------------------------
  NO LB      ZA    FRAG     MASS         X           Y           Z
   0 O     8.0000    0    15.999    0.000000    0.000000    1.471719
   1 Cl   17.0000    0    35.453    0.000000    2.639192   -0.346198
   2 Cl   17.0000    0    35.453    0.000000   -2.639192   -0.346198

--------------------------------
INTERNAL COORDINATES (ANGSTROEM)
--------------------------------
 O      0   0   0     0.000000000000     0.00000000     0.00000000
 Cl     1   0   0     1.695858354934     0.00000000     0.00000000
 Cl     1   2   0     1.695858354934   110.88063892     0.00000000

---------------------------
INTERNAL COORDINATES (A.U.)
---------------------------
 O      0   0   0     0.000000000000     0.00000000     0.00000000
 Cl     1   0   0     3.204707852748     0.00000000     0.00000000
 Cl     1   2   0     3.204707852748   110.88063892     0.00000000

---------------------
BASIS SET INFORMATION
---------------------
There are 2 groups of distinct atoms

 Group   1 Type O   : 27s12p7d4f3g2h contracted to 9s8p7d4f3g2h pattern {1191111111/51111111/1111111/1111/111/11}
 Group   2 Type Cl  : 44s27p7d4f3g2h contracted to 8s7p7d4f3g2h pattern {15121211111/111111111/1111111/1111/111/11}

Atom   0O    basis set group =>   1
Atom   1Cl   basis set group =>   2
Atom   2Cl   basis set group =>   2


           ************************************************************
           *        Program running with 4 parallel MPI-processes     *
           *              working on a common directory               *
           ************************************************************
------------------------------------------------------------------------------
                           ORCA GTO INTEGRAL CALCULATION
------------------------------------------------------------------------------

                         BASIS SET STATISTICS AND STARTUP INFO

 # of primitive gaussian shells          ...  229
 # of primitive gaussian functions       ...  649
 # of contracted shells                  ...   95
 # of contracted basis functions         ...  427
 Highest angular momentum                ...    5
 Maximum contraction depth               ...   15
 Integral package used                   ... LIBINT
 Integral threshhold            Thresh   ...  1.000e-12
 Primitive cut-off              TCut     ...  1.000e-14


------------------------------ INTEGRAL EVALUATION ----------------------------


 * One electron integrals 
 Pre-screening matrix                    ... done
 Shell pair data                         ... done (   0.003 sec)



           ************************************************************
           *        Program running with 4 parallel MPI-processes     *
           *              working on a common directory               *
           ************************************************************
-------------------------------------------------------------------------------
                                 ORCA SCF
-------------------------------------------------------------------------------

------------
SCF SETTINGS
------------
Hamiltonian:
 Density Functional     Method          .... DFT(GTOs)
 Exchange Functional    Exchange        .... PBE
   PBE kappa parameter   XKappa         ....  0.804000
   PBE mue parameter    XMuePBE         ....  0.219520
 Correlation Functional Correlation     .... PBE
   PBE beta parameter  CBetaPBE         ....  0.066725
 LDA part of GGA corr.  LDAOpt          .... PW91-LDA
 Gradients option       PostSCFGGA      .... off
   Density functional embedding theory  .... OFF
   NL short-range parameter             ....  6.400000


General Settings:
 Integral files         IntName         .... ocl2_pbe
 Hartree-Fock type      HFTyp           .... UHF
 Total Charge           Charge          ....    0
 Multiplicity           Mult            ....    1
 Number of Electrons    NEL             ....   42
 Basis Dimension        Dim             ....  427
 Nuclear Repulsion      ENuc            ....    139.6267471493 Eh

Convergence Acceleration:
 DIIS                   CNVDIIS         .... on
   Start iteration      DIISMaxIt       ....    12
   Startup error        DIISStart       ....  0.200000
   # of expansion vecs  DIISMaxEq       ....     5
   Bias factor          DIISBfac        ....   1.050
   Max. coefficient     DIISMaxC        ....  10.000
 Newton-Raphson         CNVNR           .... off
 SOSCF                  CNVSOSCF        .... off
 Level Shifting         CNVShift        .... on
   Level shift para.    LevelShift      ....    0.2500
   Turn off err/grad.   ShiftErr        ....    0.0010
 Zerner damping         CNVZerner       .... off
 Static damping         CNVDamp         .... on
   Fraction old density DampFac         ....    0.7000
   Max. Damping (<1)    DampMax         ....    0.9800
   Min. Damping (>=0)   DampMin         ....    0.0000
   Turn off err/grad.   DampErr         ....    0.1000
 Fernandez-Rico         CNVRico         .... off

SCF Procedure:
 Maximum # iterations   MaxIter         ....   200
 SCF integral mode      SCFMode         .... Direct
   Integral package                     .... LIBINT
 Reset frequency        DirectResetFreq ....    20
 Integral Threshold     Thresh          ....  1.000e-12 Eh
 Primitive CutOff       TCut            ....  1.000e-14 Eh

Convergence Tolerance:
 Convergence Check Mode ConvCheckMode   .... Total+1el-Energy
 Convergence forced     ConvForced      .... 0
 Energy Change          TolE            ....  1.000e-09 Eh
 1-El. energy change                    ....  1.000e-06 Eh
 DIIS Error             TolErr          ....  1.000e-08


Diagonalization of the overlap matrix:
Smallest eigenvalue                        ... 5.503e-06
Time for diagonalization                   ...    0.150 sec
Threshold for overlap eigenvalues          ... 1.000e-08
Number of eigenvalues below threshold      ... 0
Time for construction of square roots      ...    0.038 sec
Total time needed                          ...    0.189 sec

-------------------
DFT GRID GENERATION
-------------------

General Integration Accuracy     IntAcc      ...  5.670
Radial Grid Type                 RadialGrid  ... Gauss-Chebyshev
Angular Grid (max. acc.)         AngularGrid ... Lebedev-770
Angular grid pruning method      GridPruning ... 3 (G Style)
Weight generation scheme         WeightScheme... Becke
Basis function cutoff            BFCut       ...    1.0000e-12
Integration weight cutoff        WCut        ...    1.0000e-14
Grids for H and He will be reduced by one unit

# of grid points (after initial pruning)     ...  79706 (   0.0 sec)
# of grid points (after weights+screening)   ...  79202 (   0.0 sec)
nearest neighbour list constructed           ...    0.0 sec
Grid point re-assignment to atoms done       ...    0.0 sec
Grid point division into batches done        ...    2.3 sec
Reduced shell lists constructed in    2.9 sec

Total number of grid points                  ...    79202
Total number of batches                      ...     1239
Average number of points per batch           ...       63
Average number of grid points per atom       ...    26401
Average number of shells per batch           ...    70.22 (73.92%)
Average number of basis functions per batch  ...   325.24 (76.17%)
Average number of large shells per batch     ...    62.42 (88.90%)
Average number of large basis fcns per batch ...   292.30 (89.87%)
Maximum spatial batch extension              ...  13.91, 14.22, 13.69 au
Average spatial batch extension              ...   0.56,  0.56,  0.54 au

Time for grid setup =    2.973 sec

------------------------------
INITIAL GUESS: MODEL POTENTIAL
------------------------------
Loading Hartree-Fock densities                     ... done
Calculating cut-offs                               ... done
Setting up the integral package                    ... done
Initializing the effective Hamiltonian             ... done
Starting the Coulomb interaction                   ... done (   0.1 sec)
Reading the grid                                   ... done
Mapping shells                                     ... done
Starting the XC term evaluation                    ... done (   2.1 sec)
  promolecular density results
     # of electrons  =     41.999999327
     EX              =    -62.877199015
     EC              =     -1.606845912
     EX+EC           =    -64.484044927
Transforming the Hamiltonian                       ... done (   0.0 sec)
Diagonalizing the Hamiltonian                      ... done (   0.0 sec)
Back transforming the eigenvectors                 ... done (   0.0 sec)
Now organizing SCF variables                       ... done
                      ------------------
                      INITIAL GUESS DONE (   5.4 sec)
                      ------------------
--------------
SCF ITERATIONS
--------------
ITER       Energy         Delta-E        Max-DP      RMS-DP      [F,P]     Damp
               ***  Starting incremental Fock matrix formation  ***
  0   -995.1387020368   0.000000000000 0.00741194  0.00008304  0.0848906 0.7000
  1   -995.1463266549  -0.007624618057 0.00566492  0.00005997  0.0435270 0.7000
                               ***Turning on DIIS***
  2   -995.1487141660  -0.002387511149 0.01313253  0.00012670  0.0209647 0.0000
  3   -995.1545109392  -0.005796773167 0.00244425  0.00002926  0.0156068 0.0000
  4   -995.1548523679  -0.000341428724 0.00099054  0.00000902  0.0072068 0.0000
  5   -995.1549182354  -0.000065867476 0.00022047  0.00000321  0.0020956 0.0000
  6   -995.1549244112  -0.000006175863 0.00019459  0.00000183  0.0004229 0.0000
  7   -995.1549247515  -0.000000340262 0.00004203  0.00000048  0.0001931 0.0000
  8   -995.1549248424  -0.000000090916 0.00001243  0.00000015  0.0000635 0.0000
  9   -995.1549248571  -0.000000014658 0.00000986  0.00000008  0.0000158 0.0000
 10   -995.1549248584  -0.000000001307 0.00000832  0.00000006  0.0000038 0.0000
 11   -995.1549248585  -0.000000000091 0.00002530  0.00000015  0.0000010 0.0000
 12   -995.1549248585   0.000000000018 0.00001364  0.00000010  0.0000002 0.0000
 13   -995.1549248585  -0.000000000042 0.00001775  0.00000018  0.0000001 0.0000
 14   -995.1549248585  -0.000000000035 0.00000751  0.00000008  0.0000000 0.0000
                 **** Energy Check signals convergence ****

               *****************************************************
               *                     SUCCESS                       *
               *           SCF CONVERGED AFTER  15 CYCLES          *
               *****************************************************


----------------
TOTAL SCF ENERGY
----------------

Total Energy       :         -995.15492486 Eh          -27079.54220 eV

Components:
Nuclear Repulsion  :          139.62674715 Eh            3799.43695 eV
Electronic Energy  :        -1134.78167201 Eh          -30878.97915 eV
One Electron Energy:        -1651.60858238 Eh          -44942.55436 eV
Two Electron Energy:          516.82691038 Eh           14063.57521 eV

Virial components:
Potential Energy   :        -1989.35933200 Eh          -54133.21950 eV
Kinetic Energy     :          994.20440714 Eh           27053.67730 eV
Virial Ratio       :            2.00095606


DFT components:
N(Alpha)           :       20.999999967006 electrons
N(Beta)            :       20.999999967006 electrons
N(Total)           :       41.999999934012 electrons
E(X)               :      -62.939999159001 Eh       
E(C)               :       -1.600270952473 Eh       
E(XC)              :      -64.540270111474 Eh       
DFET-embed. en.    :        0.000000000000 Eh       

---------------
SCF CONVERGENCE
---------------

  Last Energy change         ...    5.3774e-11  Tolerance :   1.0000e-09
  Last MAX-Density change    ...    4.0331e-06  Tolerance :   1.0000e-08
  Last RMS-Density change    ...    3.8192e-08  Tolerance :   1.0000e-09
  Last DIIS Error            ...    1.7426e-08  Tolerance :   1.0000e-08

             **** THE GBW FILE WAS UPDATED (ocl2_pbe.gbw) ****
             **** DENSITY FILE WAS UPDATED (ocl2_pbe.scfp.tmp) ****
             **** ENERGY FILE WAS UPDATED (ocl2_pbe.en.tmp) ****
----------------------
UHF SPIN CONTAMINATION
----------------------

Warning: in a DFT calculation there is little theoretical justification to 
         calculate <S**2> as in Hartree-Fock theory. We will do it anyways
         but you should keep in mind that the values have only limited relevance

Expectation value of <S**2>     :     0.000000
Ideal value S*(S+1) for S=0.0   :     0.000000
Deviation                       :     0.000000

----------------
ORBITAL ENERGIES
----------------
                 SPIN UP ORBITALS
  NO   OCC          E(Eh)            E(eV) 
   0   1.0000    -100.713200     -2740.5455 
   1   1.0000    -100.713200     -2740.5455 
   2   1.0000     -18.886439      -513.9261 
   3   1.0000      -9.233305      -251.2510 
   4   1.0000      -9.233305      -251.2510 
   5   1.0000      -7.061155      -192.1438 
   6   1.0000      -7.061155      -192.1438 
   7   1.0000      -7.044294      -191.6850 
   8   1.0000      -7.044294      -191.6850 
   9   1.0000      -7.043373      -191.6599 
  10   1.0000      -7.043373      -191.6599 
  11   1.0000      -1.029153       -28.0047 
  12   1.0000      -0.800722       -21.7887 
  13   1.0000      -0.701191       -19.0804 
  14   1.0000      -0.496215       -13.5027 
  15   1.0000      -0.447184       -12.1685 
  16   1.0000      -0.414688       -11.2842 
  17   1.0000      -0.311199        -8.4682 
  18   1.0000      -0.310955        -8.4615 
  19   1.0000      -0.296985        -8.0814 
  20   1.0000      -0.247719        -6.7408 
  21   0.0000      -0.169425        -4.6103 
  22   0.0000      -0.105404        -2.8682 
  23   0.0000      -0.008417        -0.2290 
  24   0.0000       0.011458         0.3118 
  25   0.0000       0.019024         0.5177 
  26   0.0000       0.020245         0.5509 
  27   0.0000       0.041764         1.1365 
  28   0.0000       0.042405         1.1539 
  29   0.0000       0.043940         1.1957 
  30   0.0000       0.053663         1.4602 
  31   0.0000       0.055822         1.5190 
  32   0.0000       0.069488         1.8909 
  33   0.0000       0.092781         2.5247 
  34   0.0000       0.097869         2.6632 
  35   0.0000       0.099859         2.7173 
  36   0.0000       0.108133         2.9424 
  37   0.0000       0.126642         3.4461 
  38   0.0000       0.127607         3.4724 
  39   0.0000       0.131522         3.5789 
  40   0.0000       0.134245         3.6530 
  41   0.0000       0.141912         3.8616 
  42   0.0000       0.148651         4.0450 
  43   0.0000       0.148664         4.0453 
  44   0.0000       0.155182         4.2227 
  45   0.0000       0.165572         4.5054 
  46   0.0000       0.168782         4.5928 
  47   0.0000       0.182560         4.9677 
  48   0.0000       0.190389         5.1807 
  49   0.0000       0.198421         5.3993 
  50   0.0000       0.201564         5.4848 
  51   0.0000       0.202439         5.5087 
  52   0.0000       0.233294         6.3482 
  53   0.0000       0.235494         6.4081 
  54   0.0000       0.237714         6.4685 
  55   0.0000       0.254394         6.9224 
  56   0.0000       0.254763         6.9324 
  57   0.0000       0.259694         7.0666 
  58   0.0000       0.260360         7.0847 
  59   0.0000       0.273879         7.4526 
  60   0.0000       0.284913         7.7529 
  61   0.0000       0.287326         7.8185 
  62   0.0000       0.294448         8.0123 
  63   0.0000       0.320431         8.7194 
  64   0.0000       0.326475         8.8838 
  65   0.0000       0.329236         8.9590 
  66   0.0000       0.331333         9.0160 
  67   0.0000       0.333010         9.0617 
  68   0.0000       0.340671         9.2701 
  69   0.0000       0.341373         9.2892 
  70   0.0000       0.352016         9.5788 
  71   0.0000       0.360327         9.8050 
  72   0.0000       0.375761        10.2250 
  73   0.0000       0.379056        10.3146 
  74   0.0000       0.392063        10.6686 
  75   0.0000       0.398634        10.8474 
  76   0.0000       0.417400        11.3580 
  77   0.0000       0.420492        11.4422 
  78   0.0000       0.430450        11.7131 
  79   0.0000       0.436289        11.8720 
  80   0.0000       0.441457        12.0127 
  81   0.0000       0.458110        12.4658 
  82   0.0000       0.459090        12.4925 
  83   0.0000       0.471828        12.8391 
  84   0.0000       0.475025        12.9261 
  85   0.0000       0.496432        13.5086 
  86   0.0000       0.504777        13.7357 
  87   0.0000       0.506976        13.7955 
  88   0.0000       0.509500        13.8642 
  89   0.0000       0.524916        14.2837 
  90   0.0000       0.531506        14.4630 
  91   0.0000       0.533721        14.5233 
  92   0.0000       0.557313        15.1653 
  93   0.0000       0.560787        15.2598 
  94   0.0000       0.565567        15.3899 
  95   0.0000       0.572877        15.5888 
  96   0.0000       0.586638        15.9632 
  97   0.0000       0.592126        16.1126 
  98   0.0000       0.596870        16.2417 
  99   0.0000       0.605238        16.4694 
 100   0.0000       0.606473        16.5030 
 101   0.0000       0.612995        16.6804 
 102   0.0000       0.616049        16.7635 
 103   0.0000       0.617260        16.7965 
 104   0.0000       0.631160        17.1747 
 105   0.0000       0.631548        17.1853 
 106   0.0000       0.635183        17.2842 
 107   0.0000       0.674529        18.3549 
 108   0.0000       0.695219        18.9179 
 109   0.0000       0.696363        18.9490 
 110   0.0000       0.702669        19.1206 
 111   0.0000       0.712394        19.3852 
 112   0.0000       0.712515        19.3885 
 113   0.0000       0.720291        19.6001 
 114   0.0000       0.720761        19.6129 
 115   0.0000       0.727560        19.7979 
 116   0.0000       0.740208        20.1421 
 117   0.0000       0.746868        20.3233 
 118   0.0000       0.752248        20.4697 
 119   0.0000       0.754385        20.5279 
 120   0.0000       0.783043        21.3077 
 121   0.0000       0.800407        21.7802 
 122   0.0000       0.801089        21.7987 
 123   0.0000       0.816593        22.2206 
 124   0.0000       0.819424        22.2977 
 125   0.0000       0.834388        22.7049 
 126   0.0000       0.851628        23.1740 
 127   0.0000       0.861334        23.4381 
 128   0.0000       0.870252        23.6808 
 129   0.0000       0.871659        23.7190 
 130   0.0000       0.884029        24.0557 
 131   0.0000       0.885326        24.0910 
 132   0.0000       0.890875        24.2419 
 133   0.0000       0.892035        24.2735 
 134   0.0000       0.902958        24.5707 
 135   0.0000       0.908270        24.7153 
 136   0.0000       0.930180        25.3115 
 137   0.0000       0.936569        25.4853 
 138   0.0000       0.937517        25.5111 
 139   0.0000       0.953167        25.9370 
 140   0.0000       0.962152        26.1815 
 141   0.0000       0.977081        26.5877 
 142   0.0000       0.977545        26.6003 
 143   0.0000       0.989580        26.9278 
 144   0.0000       0.997981        27.1564 
 145   0.0000       0.999065        27.1859 
 146   0.0000       1.021108        27.7858 
 147   0.0000       1.028705        27.9925 
 148   0.0000       1.029389        28.0111 
 149   0.0000       1.032471        28.0950 
 150   0.0000       1.038714        28.2648 
 151   0.0000       1.061187        28.8764 
 152   0.0000       1.076639        29.2968 
 153   0.0000       1.076667        29.2976 
 154   0.0000       1.079862        29.3845 
 155   0.0000       1.086933        29.5769 
 156   0.0000       1.093094        29.7446 
 157   0.0000       1.097416        29.8622 
 158   0.0000       1.100696        29.9515 
 159   0.0000       1.119860        30.4729 
 160   0.0000       1.139005        30.9939 
 161   0.0000       1.143691        31.1214 
 162   0.0000       1.153863        31.3982 
 163   0.0000       1.161231        31.5987 
 164   0.0000       1.180782        32.1307 
 165   0.0000       1.187415        32.3112 
 166   0.0000       1.197263        32.5792 
 167   0.0000       1.222899        33.2768 
 168   0.0000       1.229236        33.4492 
 169   0.0000       1.243315        33.8323 
 170   0.0000       1.254142        34.1269 
 171   0.0000       1.264367        34.4052 
 172   0.0000       1.264829        34.4178 
 173   0.0000       1.278386        34.7866 
 174   0.0000       1.293330        35.1933 
 175   0.0000       1.306408        35.5492 
 176   0.0000       1.373499        37.3748 
 177   0.0000       1.375931        37.4410 
 178   0.0000       1.502337        40.8807 
 179   0.0000       1.517263        41.2868 
 180   0.0000       1.561673        42.4953 
 181   0.0000       1.582702        43.0675 
 182   0.0000       1.588478        43.2247 
 183   0.0000       1.588887        43.2358 
 184   0.0000       1.615113        43.9495 
 185   0.0000       1.639352        44.6090 
 186   0.0000       1.656939        45.0876 
 187   0.0000       1.681081        45.7445 
 188   0.0000       1.689013        45.9604 
 189   0.0000       1.740100        47.3505 
 190   0.0000       1.741612        47.3917 
 191   0.0000       1.768970        48.1361 
 192   0.0000       1.786084        48.6018 
 193   0.0000       1.852196        50.4008 
 194   0.0000       1.866571        50.7920 
 195   0.0000       1.882694        51.2307 
 196   0.0000       1.884711        51.2856 
 197   0.0000       1.896420        51.6042 
 198   0.0000       1.909592        51.9626 
 199   0.0000       1.927247        52.4431 
 200   0.0000       1.976842        53.7926 
 201   0.0000       1.982614        53.9497 
 202   0.0000       1.983981        53.9869 
 203   0.0000       2.025017        55.1035 
 204   0.0000       2.062597        56.1261 
 205   0.0000       2.063912        56.1619 
 206   0.0000       2.150226        58.5106 
 207   0.0000       2.151597        58.5479 
 208   0.0000       2.217806        60.3496 
 209   0.0000       2.228695        60.6459 
 210   0.0000       2.257929        61.4414 
 211   0.0000       2.264075        61.6086 
 212   0.0000       2.302451        62.6529 
 213   0.0000       2.326018        63.2942 
 214   0.0000       2.346433        63.8497 
 215   0.0000       2.350168        63.9513 
 216   0.0000       2.366314        64.3907 
 217   0.0000       2.532372        68.9094 
 218   0.0000       2.544911        69.2506 
 219   0.0000       2.548669        69.3528 
 220   0.0000       2.639976        71.8374 
 221   0.0000       2.646986        72.0282 
 222   0.0000       2.723526        74.1109 
 223   0.0000       2.849473        77.5381 
 224   0.0000       2.862118        77.8822 
 225   0.0000       2.867415        78.0263 
 226   0.0000       2.899660        78.9038 
 227   0.0000       2.911713        79.2317 
 228   0.0000       2.913522        79.2810 
 229   0.0000       2.922873        79.5354 
 230   0.0000       2.933133        79.8146 
 231   0.0000       2.975191        80.9591 
 232   0.0000       2.989584        81.3507 
 233   0.0000       3.043547        82.8191 
 234   0.0000       3.134799        85.3022 
 235   0.0000       3.214125        87.4608 
 236   0.0000       3.337906        90.8291 
 237   0.0000       3.483434        94.7891 
 238   0.0000       3.538439        96.2858 
 239   0.0000       3.608659        98.1966 
 240   0.0000       3.681986       100.1919 
 241   0.0000       3.693265       100.4989 
 242   0.0000       3.699722       100.6746 
 243   0.0000       3.723670       101.3262 
 244   0.0000       3.739163       101.7478 
 245   0.0000       3.755932       102.2041 
 246   0.0000       3.768452       102.5448 
 247   0.0000       3.831510       104.2607 
 248   0.0000       3.861185       105.0682 
 249   0.0000       3.903525       106.2203 
 250   0.0000       3.905664       106.2785 
 251   0.0000       3.967448       107.9597 
 252   0.0000       3.972985       108.1104 
 253   0.0000       3.981719       108.3481 
 254   0.0000       3.987747       108.5121 
 255   0.0000       4.025247       109.5325 
 256   0.0000       4.056769       110.3903 
 257   0.0000       4.140859       112.6785 
 258   0.0000       4.162100       113.2565 
 259   0.0000       4.217726       114.7701 
 260   0.0000       4.230145       115.1081 
 261   0.0000       4.259656       115.9111 
 262   0.0000       4.307882       117.2234 
 263   0.0000       4.327110       117.7466 
 264   0.0000       4.558422       124.0410 
 265   0.0000       4.584931       124.7623 
 266   0.0000       4.757819       129.4668 
 267   0.0000       4.761184       129.5584 
 268   0.0000       4.813788       130.9898 
 269   0.0000       4.828088       131.3790 
 270   0.0000       4.927503       134.0842 
 271   0.0000       4.967019       135.1594 
 272   0.0000       4.968803       135.2080 
 273   0.0000       5.028380       136.8292 
 274   0.0000       5.064710       137.8178 
 275   0.0000       5.120876       139.3461 
 276   0.0000       5.122759       139.3974 
 277   0.0000       5.154139       140.2513 
 278   0.0000       5.169789       140.6771 
 279   0.0000       5.315412       144.6397 
 280   0.0000       5.499952       149.6613 
 281   0.0000       5.505160       149.8030 
 282   0.0000       5.642379       153.5369 
 283   0.0000       5.643198       153.5592 
 284   0.0000       5.644260       153.5881 
 285   0.0000       5.650631       153.7615 
 286   0.0000       5.654756       153.8737 
 287   0.0000       5.655392       153.8910 
 288   0.0000       5.655956       153.9064 
 289   0.0000       5.655994       153.9074 
 290   0.0000       5.678894       154.5306 
 291   0.0000       5.682918       154.6401 
 292   0.0000       5.692163       154.8916 
 293   0.0000       5.750258       156.4725 
 294   0.0000       5.776369       157.1830 
 295   0.0000       5.813837       158.2026 
 296   0.0000       5.847914       159.1298 
 297   0.0000       5.855166       159.3272 
 298   0.0000       5.855310       159.3311 
 299   0.0000       5.858593       159.4204 
 300   0.0000       5.906365       160.7204 
 301   0.0000       5.911004       160.8466 
 302   0.0000       5.911541       160.8612 
 303   0.0000       6.047773       164.5683 
 304   0.0000       6.069089       165.1483 
 305   0.0000       6.167747       167.8329 
 306   0.0000       6.232319       169.5900 
 307   0.0000       6.245947       169.9609 
 308   0.0000       6.266663       170.5246 
 309   0.0000       6.293711       171.2606 
 310   0.0000       6.560196       178.5120 
 311   0.0000       6.624431       180.2599 
 312   0.0000       6.792401       184.8306 
 313   0.0000       7.048167       191.7904 
 314   0.0000       7.049232       191.8194 
 315   0.0000       7.109619       193.4626 
 316   0.0000       7.390140       201.0959 
 317   0.0000       7.519572       204.6180 
 318   0.0000       7.633853       207.7277 
 319   0.0000       7.709624       209.7895 
 320   0.0000       8.022663       218.3078 
 321   0.0000       8.058369       219.2794 
 322   0.0000       9.088737       247.3171 
 323   0.0000       9.088926       247.3223 
 324   0.0000       9.089939       247.3498 
 325   0.0000       9.095360       247.4973 
 326   0.0000       9.097019       247.5425 
 327   0.0000       9.097638       247.5593 
 328   0.0000       9.102327       247.6869 
 329   0.0000       9.117572       248.1018 
 330   0.0000       9.233182       251.2477 
 331   0.0000       9.269311       252.2308 
 332   0.0000       9.296417       252.9684 
 333   0.0000       9.299650       253.0564 
 334   0.0000       9.407747       255.9978 
 335   0.0000       9.497253       258.4334 
 336   0.0000       9.505764       258.6650 
 337   0.0000       9.803728       266.7730 
 338   0.0000       9.811925       266.9960 
 339   0.0000       9.836939       267.6767 
 340   0.0000       9.848057       267.9792 
 341   0.0000       9.907358       269.5929 
 342   0.0000       9.995868       272.0014 
 343   0.0000      10.203557       277.6529 
 344   0.0000      10.282938       279.8130 
 345   0.0000      10.651507       289.8422 
 346   0.0000      10.903676       296.7041 
 347   0.0000      11.512151       313.2616 
 348   0.0000      11.724401       319.0372 
 349   0.0000      11.970489       325.7336 
 350   0.0000      11.973993       325.8289 
 351   0.0000      12.048231       327.8490 
 352   0.0000      12.072439       328.5078 
 353   0.0000      12.124026       329.9115 
 354   0.0000      12.157448       330.8210 
 355   0.0000      12.167667       331.0991 
 356   0.0000      12.196963       331.8962 
 357   0.0000      12.235709       332.9506 
 358   0.0000      12.403297       337.5109 
 359   0.0000      12.409020       337.6666 
 360   0.0000      12.698555       345.5453 
 361   0.0000      12.756657       347.1263 
 362   0.0000      12.767389       347.4183 
 363   0.0000      12.792673       348.1063 
 364   0.0000      12.822985       348.9311 
 365   0.0000      12.851210       349.6992 
 366   0.0000      12.894251       350.8704 
 367   0.0000      12.908720       351.2641 
 368   0.0000      12.914932       351.4332 
 369   0.0000      12.916512       351.4762 
 370   0.0000      12.943124       352.2003 
 371   0.0000      12.963865       352.7647 
 372   0.0000      12.966345       352.8322 
 373   0.0000      12.972118       352.9893 
 374   0.0000      13.098729       356.4345 
 375   0.0000      13.280651       361.3849 
 376   0.0000      13.296191       361.8077 
 377   0.0000      13.333601       362.8257 
 378   0.0000      13.370692       363.8350 
 379   0.0000      14.040504       382.0615 
 380   0.0000      14.260842       388.0572 
 381   0.0000      17.044896       463.8152 
 382   0.0000      17.095543       465.1934 
 383   0.0000      17.311389       471.0669 
 384   0.0000      17.499592       476.1881 
 385   0.0000      17.573987       478.2125 
 386   0.0000      17.604194       479.0345 
 387   0.0000      17.606467       479.0963 
 388   0.0000      17.621744       479.5120 
 389   0.0000      17.652817       480.3576 
 390   0.0000      17.667313       480.7520 
 391   0.0000      17.682290       481.1596 
 392   0.0000      17.721844       482.2359 
 393   0.0000      17.809095       484.6101 
 394   0.0000      17.815086       484.7731 
 395   0.0000      17.892590       486.8821 
 396   0.0000      17.940508       488.1860 
 397   0.0000      17.944340       488.2903 
 398   0.0000      18.688917       508.5513 
 399   0.0000      18.728129       509.6183 
 400   0.0000      22.938845       624.1977 
 401   0.0000      23.002526       625.9306 
 402   0.0000      23.017536       626.3390 
 403   0.0000      23.448215       638.0584 
 404   0.0000      23.671890       644.1449 
 405   0.0000      29.649398       806.8011 
 406   0.0000      31.688069       862.2762 
 407   0.0000      32.221509       876.7918 
 408   0.0000      32.443055       882.8204 
 409   0.0000      39.715301      1080.7083 
 410   0.0000      40.506848      1102.2474 
 411   0.0000      65.766113      1789.5869 
 412   0.0000      65.783124      1790.0498 
 413   0.0000      65.796061      1790.4018 
 414   0.0000      65.809784      1790.7753 
 415   0.0000      65.814079      1790.8921 
 416   0.0000      65.822617      1791.1245 
 417   0.0000      65.839870      1791.5939 
 418   0.0000      65.879124      1792.6621 
 419   0.0000      66.090951      1798.4262 
 420   0.0000      66.098668      1798.6362 
 421   0.0000      66.498070      1809.5045 
 422   0.0000      66.550985      1810.9444 
 423   0.0000      66.551692      1810.9636 
 424   0.0000      66.870841      1819.6481 
 425   0.0000      67.034678      1824.1063 
 426   0.0000     142.402380      3874.9658 

                 SPIN DOWN ORBITALS
  NO   OCC          E(Eh)            E(eV) 
   0   1.0000    -100.713200     -2740.5455 
   1   1.0000    -100.713200     -2740.5455 
   2   1.0000     -18.886439      -513.9261 
   3   1.0000      -9.233305      -251.2510 
   4   1.0000      -9.233305      -251.2510 
   5   1.0000      -7.061155      -192.1438 
   6   1.0000      -7.061155      -192.1438 
   7   1.0000      -7.044294      -191.6850 
   8   1.0000      -7.044294      -191.6850 
   9   1.0000      -7.043373      -191.6599 
  10   1.0000      -7.043373      -191.6599 
  11   1.0000      -1.029153       -28.0047 
  12   1.0000      -0.800722       -21.7887 
  13   1.0000      -0.701191       -19.0804 
  14   1.0000      -0.496215       -13.5027 
  15   1.0000      -0.447184       -12.1685 
  16   1.0000      -0.414688       -11.2842 
  17   1.0000      -0.311199        -8.4682 
  18   1.0000      -0.310955        -8.4615 
  19   1.0000      -0.296985        -8.0814 
  20   1.0000      -0.247719        -6.7408 
  21   0.0000      -0.169425        -4.6103 
  22   0.0000      -0.105404        -2.8682 
  23   0.0000      -0.008417        -0.2290 
  24   0.0000       0.011458         0.3118 
  25   0.0000       0.019024         0.5177 
  26   0.0000       0.020245         0.5509 
  27   0.0000       0.041764         1.1365 
  28   0.0000       0.042405         1.1539 
  29   0.0000       0.043940         1.1957 
  30   0.0000       0.053663         1.4602 
  31   0.0000       0.055822         1.5190 
  32   0.0000       0.069488         1.8909 
  33   0.0000       0.092781         2.5247 
  34   0.0000       0.097869         2.6632 
  35   0.0000       0.099859         2.7173 
  36   0.0000       0.108133         2.9424 
  37   0.0000       0.126642         3.4461 
  38   0.0000       0.127607         3.4724 
  39   0.0000       0.131522         3.5789 
  40   0.0000       0.134245         3.6530 
  41   0.0000       0.141912         3.8616 
  42   0.0000       0.148651         4.0450 
  43   0.0000       0.148664         4.0453 
  44   0.0000       0.155182         4.2227 
  45   0.0000       0.165572         4.5054 
  46   0.0000       0.168782         4.5928 
  47   0.0000       0.182560         4.9677 
  48   0.0000       0.190389         5.1807 
  49   0.0000       0.198421         5.3993 
  50   0.0000       0.201564         5.4848 
  51   0.0000       0.202439         5.5087 
  52   0.0000       0.233294         6.3482 
  53   0.0000       0.235494         6.4081 
  54   0.0000       0.237714         6.4685 
  55   0.0000       0.254394         6.9224 
  56   0.0000       0.254763         6.9324 
  57   0.0000       0.259694         7.0666 
  58   0.0000       0.260360         7.0847 
  59   0.0000       0.273879         7.4526 
  60   0.0000       0.284913         7.7529 
  61   0.0000       0.287326         7.8185 
  62   0.0000       0.294448         8.0123 
  63   0.0000       0.320431         8.7194 
  64   0.0000       0.326475         8.8838 
  65   0.0000       0.329236         8.9590 
  66   0.0000       0.331333         9.0160 
  67   0.0000       0.333010         9.0617 
  68   0.0000       0.340671         9.2701 
  69   0.0000       0.341373         9.2892 
  70   0.0000       0.352016         9.5788 
  71   0.0000       0.360327         9.8050 
  72   0.0000       0.375761        10.2250 
  73   0.0000       0.379056        10.3146 
  74   0.0000       0.392063        10.6686 
  75   0.0000       0.398634        10.8474 
  76   0.0000       0.417400        11.3580 
  77   0.0000       0.420492        11.4422 
  78   0.0000       0.430450        11.7131 
  79   0.0000       0.436289        11.8720 
  80   0.0000       0.441457        12.0127 
  81   0.0000       0.458110        12.4658 
  82   0.0000       0.459090        12.4925 
  83   0.0000       0.471828        12.8391 
  84   0.0000       0.475025        12.9261 
  85   0.0000       0.496432        13.5086 
  86   0.0000       0.504777        13.7357 
  87   0.0000       0.506976        13.7955 
  88   0.0000       0.509500        13.8642 
  89   0.0000       0.524916        14.2837 
  90   0.0000       0.531506        14.4630 
  91   0.0000       0.533721        14.5233 
  92   0.0000       0.557313        15.1653 
  93   0.0000       0.560787        15.2598 
  94   0.0000       0.565567        15.3899 
  95   0.0000       0.572877        15.5888 
  96   0.0000       0.586638        15.9632 
  97   0.0000       0.592126        16.1126 
  98   0.0000       0.596870        16.2417 
  99   0.0000       0.605238        16.4694 
 100   0.0000       0.606473        16.5030 
 101   0.0000       0.612995        16.6804 
 102   0.0000       0.616049        16.7635 
 103   0.0000       0.617260        16.7965 
 104   0.0000       0.631160        17.1747 
 105   0.0000       0.631548        17.1853 
 106   0.0000       0.635183        17.2842 
 107   0.0000       0.674529        18.3549 
 108   0.0000       0.695219        18.9179 
 109   0.0000       0.696363        18.9490 
 110   0.0000       0.702669        19.1206 
 111   0.0000       0.712394        19.3852 
 112   0.0000       0.712515        19.3885 
 113   0.0000       0.720291        19.6001 
 114   0.0000       0.720761        19.6129 
 115   0.0000       0.727560        19.7979 
 116   0.0000       0.740208        20.1421 
 117   0.0000       0.746868        20.3233 
 118   0.0000       0.752248        20.4697 
 119   0.0000       0.754385        20.5279 
 120   0.0000       0.783043        21.3077 
 121   0.0000       0.800407        21.7802 
 122   0.0000       0.801089        21.7987 
 123   0.0000       0.816593        22.2206 
 124   0.0000       0.819424        22.2977 
 125   0.0000       0.834388        22.7049 
 126   0.0000       0.851628        23.1740 
 127   0.0000       0.861334        23.4381 
 128   0.0000       0.870252        23.6808 
 129   0.0000       0.871659        23.7190 
 130   0.0000       0.884029        24.0557 
 131   0.0000       0.885326        24.0910 
 132   0.0000       0.890875        24.2419 
 133   0.0000       0.892035        24.2735 
 134   0.0000       0.902958        24.5707 
 135   0.0000       0.908270        24.7153 
 136   0.0000       0.930180        25.3115 
 137   0.0000       0.936569        25.4853 
 138   0.0000       0.937517        25.5111 
 139   0.0000       0.953167        25.9370 
 140   0.0000       0.962152        26.1815 
 141   0.0000       0.977081        26.5877 
 142   0.0000       0.977545        26.6003 
 143   0.0000       0.989580        26.9278 
 144   0.0000       0.997981        27.1564 
 145   0.0000       0.999065        27.1859 
 146   0.0000       1.021108        27.7858 
 147   0.0000       1.028705        27.9925 
 148   0.0000       1.029389        28.0111 
 149   0.0000       1.032471        28.0950 
 150   0.0000       1.038714        28.2648 
 151   0.0000       1.061187        28.8764 
 152   0.0000       1.076639        29.2968 
 153   0.0000       1.076667        29.2976 
 154   0.0000       1.079862        29.3845 
 155   0.0000       1.086933        29.5769 
 156   0.0000       1.093094        29.7446 
 157   0.0000       1.097416        29.8622 
 158   0.0000       1.100696        29.9515 
 159   0.0000       1.119860        30.4729 
 160   0.0000       1.139005        30.9939 
 161   0.0000       1.143691        31.1214 
 162   0.0000       1.153863        31.3982 
 163   0.0000       1.161231        31.5987 
 164   0.0000       1.180782        32.1307 
 165   0.0000       1.187415        32.3112 
 166   0.0000       1.197263        32.5792 
 167   0.0000       1.222899        33.2768 
 168   0.0000       1.229236        33.4492 
 169   0.0000       1.243315        33.8323 
 170   0.0000       1.254142        34.1269 
 171   0.0000       1.264367        34.4052 
 172   0.0000       1.264829        34.4178 
 173   0.0000       1.278386        34.7866 
 174   0.0000       1.293330        35.1933 
 175   0.0000       1.306408        35.5492 
 176   0.0000       1.373499        37.3748 
 177   0.0000       1.375931        37.4410 
 178   0.0000       1.502337        40.8807 
 179   0.0000       1.517263        41.2868 
 180   0.0000       1.561673        42.4953 
 181   0.0000       1.582702        43.0675 
 182   0.0000       1.588478        43.2247 
 183   0.0000       1.588887        43.2358 
 184   0.0000       1.615113        43.9495 
 185   0.0000       1.639352        44.6090 
 186   0.0000       1.656939        45.0876 
 187   0.0000       1.681081        45.7445 
 188   0.0000       1.689013        45.9604 
 189   0.0000       1.740100        47.3505 
 190   0.0000       1.741612        47.3917 
 191   0.0000       1.768970        48.1361 
 192   0.0000       1.786084        48.6018 
 193   0.0000       1.852196        50.4008 
 194   0.0000       1.866571        50.7920 
 195   0.0000       1.882694        51.2307 
 196   0.0000       1.884711        51.2856 
 197   0.0000       1.896420        51.6042 
 198   0.0000       1.909592        51.9626 
 199   0.0000       1.927247        52.4431 
 200   0.0000       1.976842        53.7926 
 201   0.0000       1.982614        53.9497 
 202   0.0000       1.983981        53.9869 
 203   0.0000       2.025017        55.1035 
 204   0.0000       2.062597        56.1261 
 205   0.0000       2.063912        56.1619 
 206   0.0000       2.150226        58.5106 
 207   0.0000       2.151597        58.5479 
 208   0.0000       2.217806        60.3496 
 209   0.0000       2.228695        60.6459 
 210   0.0000       2.257929        61.4414 
 211   0.0000       2.264075        61.6086 
 212   0.0000       2.302451        62.6529 
 213   0.0000       2.326018        63.2942 
 214   0.0000       2.346433        63.8497 
 215   0.0000       2.350168        63.9513 
 216   0.0000       2.366314        64.3907 
 217   0.0000       2.532372        68.9094 
 218   0.0000       2.544911        69.2506 
 219   0.0000       2.548669        69.3528 
 220   0.0000       2.639976        71.8374 
 221   0.0000       2.646986        72.0282 
 222   0.0000       2.723526        74.1109 
 223   0.0000       2.849473        77.5381 
 224   0.0000       2.862118        77.8822 
 225   0.0000       2.867415        78.0263 
 226   0.0000       2.899660        78.9038 
 227   0.0000       2.911713        79.2317 
 228   0.0000       2.913522        79.2810 
 229   0.0000       2.922873        79.5354 
 230   0.0000       2.933133        79.8146 
 231   0.0000       2.975191        80.9591 
 232   0.0000       2.989584        81.3507 
 233   0.0000       3.043547        82.8191 
 234   0.0000       3.134799        85.3022 
 235   0.0000       3.214125        87.4608 
 236   0.0000       3.337906        90.8291 
 237   0.0000       3.483434        94.7891 
 238   0.0000       3.538439        96.2858 
 239   0.0000       3.608659        98.1966 
 240   0.0000       3.681986       100.1919 
 241   0.0000       3.693265       100.4989 
 242   0.0000       3.699722       100.6746 
 243   0.0000       3.723670       101.3262 
 244   0.0000       3.739163       101.7478 
 245   0.0000       3.755932       102.2041 
 246   0.0000       3.768452       102.5448 
 247   0.0000       3.831510       104.2607 
 248   0.0000       3.861185       105.0682 
 249   0.0000       3.903525       106.2203 
 250   0.0000       3.905664       106.2785 
 251   0.0000       3.967448       107.9597 
 252   0.0000       3.972985       108.1104 
 253   0.0000       3.981719       108.3481 
 254   0.0000       3.987747       108.5121 
 255   0.0000       4.025247       109.5325 
 256   0.0000       4.056769       110.3903 
 257   0.0000       4.140859       112.6785 
 258   0.0000       4.162100       113.2565 
 259   0.0000       4.217726       114.7701 
 260   0.0000       4.230145       115.1081 
 261   0.0000       4.259656       115.9111 
 262   0.0000       4.307882       117.2234 
 263   0.0000       4.327110       117.7466 
 264   0.0000       4.558422       124.0410 
 265   0.0000       4.584931       124.7623 
 266   0.0000       4.757819       129.4668 
 267   0.0000       4.761184       129.5584 
 268   0.0000       4.813788       130.9898 
 269   0.0000       4.828088       131.3790 
 270   0.0000       4.927503       134.0842 
 271   0.0000       4.967019       135.1594 
 272   0.0000       4.968803       135.2080 
 273   0.0000       5.028380       136.8292 
 274   0.0000       5.064710       137.8178 
 275   0.0000       5.120876       139.3461 
 276   0.0000       5.122759       139.3974 
 277   0.0000       5.154139       140.2513 
 278   0.0000       5.169789       140.6771 
 279   0.0000       5.315412       144.6397 
 280   0.0000       5.499952       149.6613 
 281   0.0000       5.505160       149.8030 
 282   0.0000       5.642379       153.5369 
 283   0.0000       5.643198       153.5592 
 284   0.0000       5.644260       153.5881 
 285   0.0000       5.650631       153.7615 
 286   0.0000       5.654756       153.8737 
 287   0.0000       5.655392       153.8910 
 288   0.0000       5.655956       153.9064 
 289   0.0000       5.655994       153.9074 
 290   0.0000       5.678894       154.5306 
 291   0.0000       5.682918       154.6401 
 292   0.0000       5.692163       154.8916 
 293   0.0000       5.750258       156.4725 
 294   0.0000       5.776369       157.1830 
 295   0.0000       5.813837       158.2026 
 296   0.0000       5.847914       159.1298 
 297   0.0000       5.855166       159.3272 
 298   0.0000       5.855310       159.3311 
 299   0.0000       5.858593       159.4204 
 300   0.0000       5.906365       160.7204 
 301   0.0000       5.911004       160.8466 
 302   0.0000       5.911541       160.8612 
 303   0.0000       6.047773       164.5683 
 304   0.0000       6.069089       165.1483 
 305   0.0000       6.167747       167.8329 
 306   0.0000       6.232319       169.5900 
 307   0.0000       6.245947       169.9609 
 308   0.0000       6.266663       170.5246 
 309   0.0000       6.293711       171.2606 
 310   0.0000       6.560196       178.5120 
 311   0.0000       6.624431       180.2599 
 312   0.0000       6.792401       184.8306 
 313   0.0000       7.048167       191.7904 
 314   0.0000       7.049232       191.8194 
 315   0.0000       7.109619       193.4626 
 316   0.0000       7.390140       201.0959 
 317   0.0000       7.519572       204.6180 
 318   0.0000       7.633853       207.7277 
 319   0.0000       7.709624       209.7895 
 320   0.0000       8.022663       218.3078 
 321   0.0000       8.058369       219.2794 
 322   0.0000       9.088737       247.3171 
 323   0.0000       9.088926       247.3223 
 324   0.0000       9.089939       247.3498 
 325   0.0000       9.095360       247.4973 
 326   0.0000       9.097019       247.5425 
 327   0.0000       9.097638       247.5593 
 328   0.0000       9.102327       247.6869 
 329   0.0000       9.117572       248.1018 
 330   0.0000       9.233182       251.2477 
 331   0.0000       9.269311       252.2308 
 332   0.0000       9.296417       252.9684 
 333   0.0000       9.299650       253.0564 
 334   0.0000       9.407747       255.9978 
 335   0.0000       9.497253       258.4334 
 336   0.0000       9.505764       258.6650 
 337   0.0000       9.803728       266.7730 
 338   0.0000       9.811925       266.9960 
 339   0.0000       9.836939       267.6767 
 340   0.0000       9.848057       267.9792 
 341   0.0000       9.907358       269.5929 
 342   0.0000       9.995868       272.0014 
 343   0.0000      10.203557       277.6529 
 344   0.0000      10.282938       279.8130 
 345   0.0000      10.651507       289.8422 
 346   0.0000      10.903676       296.7041 
 347   0.0000      11.512151       313.2616 
 348   0.0000      11.724401       319.0372 
 349   0.0000      11.970489       325.7336 
 350   0.0000      11.973993       325.8289 
 351   0.0000      12.048231       327.8490 
 352   0.0000      12.072439       328.5078 
 353   0.0000      12.124026       329.9115 
 354   0.0000      12.157448       330.8210 
 355   0.0000      12.167667       331.0991 
 356   0.0000      12.196963       331.8962 
 357   0.0000      12.235709       332.9506 
 358   0.0000      12.403297       337.5109 
 359   0.0000      12.409020       337.6666 
 360   0.0000      12.698555       345.5453 
 361   0.0000      12.756657       347.1263 
 362   0.0000      12.767389       347.4183 
 363   0.0000      12.792673       348.1063 
 364   0.0000      12.822985       348.9311 
 365   0.0000      12.851210       349.6992 
 366   0.0000      12.894251       350.8704 
 367   0.0000      12.908720       351.2641 
 368   0.0000      12.914932       351.4332 
 369   0.0000      12.916512       351.4762 
 370   0.0000      12.943124       352.2003 
 371   0.0000      12.963865       352.7647 
 372   0.0000      12.966345       352.8322 
 373   0.0000      12.972118       352.9893 
 374   0.0000      13.098729       356.4345 
 375   0.0000      13.280651       361.3849 
 376   0.0000      13.296191       361.8077 
 377   0.0000      13.333601       362.8257 
 378   0.0000      13.370692       363.8350 
 379   0.0000      14.040504       382.0615 
 380   0.0000      14.260842       388.0572 
 381   0.0000      17.044896       463.8152 
 382   0.0000      17.095543       465.1934 
 383   0.0000      17.311389       471.0669 
 384   0.0000      17.499592       476.1881 
 385   0.0000      17.573987       478.2125 
 386   0.0000      17.604194       479.0345 
 387   0.0000      17.606467       479.0963 
 388   0.0000      17.621744       479.5120 
 389   0.0000      17.652817       480.3576 
 390   0.0000      17.667313       480.7520 
 391   0.0000      17.682290       481.1596 
 392   0.0000      17.721844       482.2359 
 393   0.0000      17.809095       484.6101 
 394   0.0000      17.815086       484.7731 
 395   0.0000      17.892590       486.8821 
 396   0.0000      17.940508       488.1860 
 397   0.0000      17.944340       488.2903 
 398   0.0000      18.688917       508.5513 
 399   0.0000      18.728129       509.6183 
 400   0.0000      22.938845       624.1977 
 401   0.0000      23.002526       625.9306 
 402   0.0000      23.017536       626.3390 
 403   0.0000      23.448215       638.0584 
 404   0.0000      23.671890       644.1449 
 405   0.0000      29.649398       806.8011 
 406   0.0000      31.688069       862.2762 
 407   0.0000      32.221509       876.7918 
 408   0.0000      32.443055       882.8204 
 409   0.0000      39.715301      1080.7083 
 410   0.0000      40.506848      1102.2474 
 411   0.0000      65.766113      1789.5869 
 412   0.0000      65.783124      1790.0498 
 413   0.0000      65.796061      1790.4018 
 414   0.0000      65.809784      1790.7753 
 415   0.0000      65.814079      1790.8921 
 416   0.0000      65.822617      1791.1245 
 417   0.0000      65.839870      1791.5939 
 418   0.0000      65.879124      1792.6621 
 419   0.0000      66.090951      1798.4262 
 420   0.0000      66.098668      1798.6362 
 421   0.0000      66.498070      1809.5045 
 422   0.0000      66.550985      1810.9444 
 423   0.0000      66.551692      1810.9636 
 424   0.0000      66.870841      1819.6481 
 425   0.0000      67.034678      1824.1063 
 426   0.0000     142.402380      3874.9658 

                    ********************************
                    * MULLIKEN POPULATION ANALYSIS *
                    ********************************

--------------------------------------------
MULLIKEN ATOMIC CHARGES AND SPIN POPULATIONS
--------------------------------------------
   0 O :    0.195783    0.000000
   1 Cl:   -0.097890   -0.000000
   2 Cl:   -0.097893    0.000000
Sum of atomic charges         :    0.0000000
Sum of atomic spin populations:    0.0000000

-----------------------------------------------------
MULLIKEN REDUCED ORBITAL CHARGES AND SPIN POPULATIONS
-----------------------------------------------------
CHARGE
  0 O s       :     3.702541  s :     3.702541
      pz      :     1.230489  p :     4.019900
      px      :     1.873681
      py      :     0.915731
      dz2     :     0.020360  d :     0.072088
      dxz     :     0.011737
      dyz     :     0.009649
      dx2y2   :     0.010226
      dxy     :     0.020116
      f0      :     0.000774  f :     0.010650
      f+1     :     0.000633
      f-1     :     0.001299
      f+2     :     0.001341
      f-2     :     0.000853
      f+3     :     0.001979
      f-3     :     0.003772
      g0      :    -0.000366  g :    -0.000461
      g+1     :    -0.000141
      g-1     :    -0.000192
      g+2     :     0.000072
      g-2     :    -0.000561
      g+3     :     0.000537
      g-3     :     0.000392
      g+4     :    -0.000073
      g-4     :    -0.000129
      h0      :    -0.000179  h :    -0.000502
      h+1     :    -0.000052
      h-1     :    -0.000143
      h+2     :     0.000044
      h-2     :     0.000005
      h+3     :     0.000149
      h-3     :    -0.000255
      h+4     :    -0.000005
      h-4     :    -0.000098
      h+5     :    -0.000028
      h-5     :     0.000061
  1 Cls       :     6.049603  s :     6.049603
      pz      :     3.672340  p :    10.875656
      px      :     3.973345
      py      :     3.229970
      dz2     :     0.017189  d :     0.134503
      dxz     :     0.018422
      dyz     :     0.035306
      dx2y2   :     0.026650
      dxy     :     0.036935
      f0      :     0.002137  f :     0.030202
      f+1     :     0.000631
      f-1     :     0.006549
      f+2     :     0.005213
      f-2     :     0.005626
      f+3     :     0.006800
      f-3     :     0.003246
      g0      :     0.000208  g :     0.007011
      g+1     :     0.000077
      g-1     :     0.001302
      g+2     :     0.000590
      g-2     :     0.000653
      g+3     :     0.001003
      g-3     :     0.001248
      g+4     :     0.000264
      g-4     :     0.001666
      h0      :     0.000156  h :     0.000915
      h+1     :     0.000033
      h-1     :    -0.000051
      h+2     :     0.000139
      h-2     :     0.000012
      h+3     :     0.000143
      h-3     :    -0.000024
      h+4     :     0.000230
      h-4     :     0.000038
      h+5     :     0.000276
      h-5     :    -0.000036
  2 Cls       :     6.049607  s :     6.049607
      pz      :     3.672340  p :    10.875654
      px      :     3.973345
      py      :     3.229970
      dz2     :     0.017189  d :     0.134503
      dxz     :     0.018422
      dyz     :     0.035306
      dx2y2   :     0.026651
      dxy     :     0.036935
      f0      :     0.002137  f :     0.030202
      f+1     :     0.000631
      f-1     :     0.006549
      f+2     :     0.005213
      f-2     :     0.005626
      f+3     :     0.006800
      f-3     :     0.003246
      g0      :     0.000208  g :     0.007011
      g+1     :     0.000077
      g-1     :     0.001302
      g+2     :     0.000590
      g-2     :     0.000653
      g+3     :     0.001003
      g-3     :     0.001248
      g+4     :     0.000264
      g-4     :     0.001666
      h0      :     0.000156  h :     0.000915
      h+1     :     0.000033
      h-1     :    -0.000051
      h+2     :     0.000139
      h-2     :     0.000012
      h+3     :     0.000143
      h-3     :    -0.000024
      h+4     :     0.000230
      h-4     :     0.000038
      h+5     :     0.000276
      h-5     :    -0.000036

SPIN
  0 O s       :    -0.000000  s :    -0.000000
      pz      :    -0.000000  p :     0.000000
      px      :     0.000000
      py      :     0.000000
      dz2     :    -0.000000  d :     0.000000
      dxz     :    -0.000000
      dyz     :     0.000000
      dx2y2   :     0.000000
      dxy     :    -0.000000
      f0      :    -0.000000  f :    -0.000000
      f+1     :     0.000000
      f-1     :     0.000000
      f+2     :    -0.000000
      f-2     :    -0.000000
      f+3     :    -0.000000
      f-3     :    -0.000000
      g0      :    -0.000000  g :    -0.000000
      g+1     :    -0.000000
      g-1     :    -0.000000
      g+2     :    -0.000000
      g-2     :    -0.000000
      g+3     :    -0.000000
      g-3     :    -0.000000
      g+4     :    -0.000000
      g-4     :    -0.000000
      h0      :    -0.000000  h :    -0.000000
      h+1     :     0.000000
      h-1     :    -0.000000
      h+2     :    -0.000000
      h-2     :    -0.000000
      h+3     :    -0.000000
      h-3     :    -0.000000
      h+4     :    -0.000000
      h-4     :    -0.000000
      h+5     :    -0.000000
      h-5     :     0.000000
  1 Cls       :    -0.000000  s :    -0.000000
      pz      :     0.000000  p :     0.000000
      px      :    -0.000000
      py      :     0.000000
      dz2     :    -0.000000  d :    -0.000000
      dxz     :    -0.000000
      dyz     :     0.000000
      dx2y2   :    -0.000000
      dxy     :    -0.000000
      f0      :     0.000000  f :    -0.000000
      f+1     :    -0.000000
      f-1     :    -0.000000
      f+2     :     0.000000
      f-2     :    -0.000000
      f+3     :    -0.000000
      f-3     :    -0.000000
      g0      :    -0.000000  g :    -0.000000
      g+1     :     0.000000
      g-1     :     0.000000
      g+2     :    -0.000000
      g-2     :    -0.000000
      g+3     :    -0.000000
      g-3     :     0.000000
      g+4     :    -0.000000
      g-4     :    -0.000000
      h0      :     0.000000  h :     0.000000
      h+1     :    -0.000000
      h-1     :    -0.000000
      h+2     :     0.000000
      h-2     :    -0.000000
      h+3     :    -0.000000
      h-3     :    -0.000000
      h+4     :     0.000000
      h-4     :    -0.000000
      h+5     :    -0.000000
      h-5     :    -0.000000
  2 Cls       :     0.000000  s :     0.000000
      pz      :     0.000000  p :     0.000000
      px      :     0.000000
      py      :     0.000000
      dz2     :     0.000000  d :     0.000000
      dxz     :    -0.000000
      dyz     :    -0.000000
      dx2y2   :     0.000000
      dxy     :    -0.000000
      f0      :    -0.000000  f :     0.000000
      f+1     :     0.000000
      f-1     :     0.000000
      f+2     :    -0.000000
      f-2     :    -0.000000
      f+3     :    -0.000000
      f-3     :    -0.000000
      g0      :     0.000000  g :    -0.000000
      g+1     :    -0.000000
      g-1     :    -0.000000
      g+2     :     0.000000
      g-2     :     0.000000
      g+3     :    -0.000000
      g-3     :    -0.000000
      g+4     :    -0.000000
      g-4     :    -0.000000
      h0      :    -0.000000  h :    -0.000000
      h+1     :    -0.000000
      h-1     :    -0.000000
      h+2     :    -0.000000
      h-2     :     0.000000
      h+3     :     0.000000
      h-3     :     0.000000
      h+4     :    -0.000000
      h-4     :    -0.000000
      h+5     :    -0.000000
      h-5     :    -0.000000


                     *******************************
                     * LOEWDIN POPULATION ANALYSIS *
                     *******************************

-------------------------------------------
LOEWDIN ATOMIC CHARGES AND SPIN POPULATIONS
-------------------------------------------
   0 O :   -1.632253    0.000000
   1 Cl:    0.816127   -0.000000
   2 Cl:    0.816127    0.000000

----------------------------------------------------
LOEWDIN REDUCED ORBITAL CHARGES AND SPIN POPULATIONS
----------------------------------------------------
CHARGE
  0 O s       :     3.355951  s :     3.355951
      pz      :     1.290676  p :     4.180858
      px      :     1.656690
      py      :     1.233492
      dz2     :     0.164543  d :     0.942890
      dxz     :     0.084749
      dyz     :     0.301864
      dx2y2   :     0.200335
      dxy     :     0.191399
      f0      :     0.048297  f :     0.608926
      f+1     :     0.004083
      f-1     :     0.188598
      f+2     :     0.101534
      f-2     :     0.108191
      f+3     :     0.086486
      f-3     :     0.071738
      g0      :     0.025431  g :     0.365850
      g+1     :     0.002164
      g-1     :     0.072346
      g+2     :     0.064337
      g-2     :     0.013691
      g+3     :     0.077928
      g-3     :     0.046426
      g+4     :     0.021818
      g-4     :     0.041708
      h0      :     0.018178  h :     0.177779
      h+1     :     0.002069
      h-1     :     0.012605
      h+2     :     0.030682
      h-2     :     0.000128
      h+3     :     0.018779
      h-3     :     0.019082
      h+4     :     0.015100
      h-4     :     0.038986
      h+5     :     0.014793
      h-5     :     0.007376
  1 Cls       :     5.254668  s :     5.254668
      pz      :     3.276243  p :     9.849467
      px      :     3.484797
      py      :     3.088426
      dz2     :     0.050103  d :     0.410189
      dxz     :     0.033125
      dyz     :     0.131026
      dx2y2   :     0.107024
      dxy     :     0.088911
      f0      :     0.025219  f :     0.290531
      f+1     :     0.003495
      f-1     :     0.063529
      f+2     :     0.060624
      f-2     :     0.031984
      f+3     :     0.054899
      f-3     :     0.050782
      g0      :     0.017237  g :     0.225354
      g+1     :     0.000598
      g-1     :     0.035808
      g+2     :     0.038240
      g-2     :     0.010082
      g+3     :     0.023737
      g-3     :     0.030201
      g+4     :     0.027418
      g-4     :     0.042033
      h0      :     0.013029  h :     0.153664
      h+1     :     0.000979
      h-1     :     0.012729
      h+2     :     0.024072
      h-2     :     0.000163
      h+3     :     0.013379
      h-3     :     0.018939
      h+4     :     0.015711
      h-4     :     0.012011
      h+5     :     0.028886
      h-5     :     0.013766
  2 Cls       :     5.254668  s :     5.254668
      pz      :     3.276243  p :     9.849467
      px      :     3.484797
      py      :     3.088426
      dz2     :     0.050103  d :     0.410189
      dxz     :     0.033125
      dyz     :     0.131026
      dx2y2   :     0.107024
      dxy     :     0.088911
      f0      :     0.025219  f :     0.290531
      f+1     :     0.003495
      f-1     :     0.063529
      f+2     :     0.060624
      f-2     :     0.031984
      f+3     :     0.054899
      f-3     :     0.050782
      g0      :     0.017237  g :     0.225354
      g+1     :     0.000598
      g-1     :     0.035808
      g+2     :     0.038240
      g-2     :     0.010082
      g+3     :     0.023737
      g-3     :     0.030201
      g+4     :     0.027418
      g-4     :     0.042033
      h0      :     0.013029  h :     0.153664
      h+1     :     0.000979
      h-1     :     0.012729
      h+2     :     0.024072
      h-2     :     0.000163
      h+3     :     0.013379
      h-3     :     0.018939
      h+4     :     0.015711
      h-4     :     0.012011
      h+5     :     0.028886
      h-5     :     0.013766

SPIN
  0 O s       :     0.000000  s :     0.000000
      pz      :    -0.000000  p :     0.000000
      px      :     0.000000
      py      :     0.000000
      dz2     :     0.000000  d :     0.000000
      dxz     :     0.000000
      dyz     :    -0.000000
      dx2y2   :     0.000000
      dxy     :     0.000000
      f0      :    -0.000000  f :    -0.000000
      f+1     :    -0.000000
      f-1     :     0.000000
      f+2     :    -0.000000
      f-2     :     0.000000
      f+3     :    -0.000000
      f-3     :    -0.000000
      g0      :    -0.000000  g :    -0.000000
      g+1     :    -0.000000
      g-1     :    -0.000000
      g+2     :    -0.000000
      g-2     :    -0.000000
      g+3     :    -0.000000
      g-3     :     0.000000
      g+4     :    -0.000000
      g-4     :    -0.000000
      h0      :     0.000000  h :     0.000000
      h+1     :    -0.000000
      h-1     :     0.000000
      h+2     :    -0.000000
      h-2     :    -0.000000
      h+3     :    -0.000000
      h-3     :     0.000000
      h+4     :     0.000000
      h-4     :    -0.000000
      h+5     :    -0.000000
      h-5     :     0.000000
  1 Cls       :    -0.000000  s :    -0.000000
      pz      :     0.000000  p :    -0.000000
      px      :     0.000000
      py      :    -0.000000
      dz2     :    -0.000000  d :    -0.000000
      dxz     :    -0.000000
      dyz     :     0.000000
      dx2y2   :    -0.000000
      dxy     :    -0.000000
      f0      :    -0.000000  f :     0.000000
      f+1     :    -0.000000
      f-1     :    -0.000000
      f+2     :     0.000000
      f-2     :    -0.000000
      f+3     :     0.000000
      f-3     :     0.000000
      g0      :     0.000000  g :     0.000000
      g+1     :     0.000000
      g-1     :     0.000000
      g+2     :     0.000000
      g-2     :     0.000000
      g+3     :     0.000000
      g-3     :     0.000000
      g+4     :     0.000000
      g-4     :    -0.000000
      h0      :     0.000000  h :     0.000000
      h+1     :    -0.000000
      h-1     :    -0.000000
      h+2     :     0.000000
      h-2     :     0.000000
      h+3     :     0.000000
      h-3     :     0.000000
      h+4     :     0.000000
      h-4     :    -0.000000
      h+5     :    -0.000000
      h-5     :     0.000000
  2 Cls       :     0.000000  s :     0.000000
      pz      :     0.000000  p :     0.000000
      px      :     0.000000
      py      :     0.000000
      dz2     :     0.000000  d :     0.000000
      dxz     :     0.000000
      dyz     :     0.000000
      dx2y2   :    -0.000000
      dxy     :    -0.000000
      f0      :    -0.000000  f :    -0.000000
      f+1     :     0.000000
      f-1     :     0.000000
      f+2     :    -0.000000
      f-2     :    -0.000000
      f+3     :    -0.000000
      f-3     :    -0.000000
      g0      :    -0.000000  g :    -0.000000
      g+1     :     0.000000
      g-1     :    -0.000000
      g+2     :     0.000000
      g-2     :     0.000000
      g+3     :    -0.000000
      g-3     :     0.000000
      g+4     :    -0.000000
      g-4     :     0.000000
      h0      :     0.000000  h :    -0.000000
      h+1     :    -0.000000
      h-1     :    -0.000000
      h+2     :     0.000000
      h-2     :     0.000000
      h+3     :    -0.000000
      h-3     :     0.000000
      h+4     :    -0.000000
      h-4     :    -0.000000
      h+5     :    -0.000000
      h-5     :    -0.000000


                      *****************************
                      * MAYER POPULATION ANALYSIS *
                      *****************************

  NA   - Mulliken gross atomic population
  ZA   - Total nuclear charge
  QA   - Mulliken gross atomic charge
  VA   - Mayer's total valence
  BVA  - Mayer's bonded valence
  FA   - Mayer's free valence

  ATOM       NA         ZA         QA         VA         BVA        FA
  0 O      7.8042     8.0000     0.1958     2.1723     2.1723     0.0000
  1 Cl    17.0979    17.0000    -0.0979     1.3019     1.3019     0.0000
  2 Cl    17.0979    17.0000    -0.0979     1.3019     1.3019     0.0000

  Mayer bond orders larger than 0.1
B(  0-O ,  1-Cl) :   1.0861 B(  0-O ,  2-Cl) :   1.0861 B(  1-Cl,  2-Cl) :   0.2158 


-------
TIMINGS
-------

Total SCF time: 0 days 0 hours 50 min 33 sec 

Total time                  ....    3033.209 sec
Sum of individual times     ....    3031.366 sec  ( 99.9%)

Fock matrix formation       ....    3020.890 sec  ( 99.6%)
  XC integration            ....      57.821 sec  (  1.9% of F)
    Basis function eval.    ....       5.548 sec  (  9.6% of XC)
    Density eval.           ....      17.525 sec  ( 30.3% of XC)
    XC-Functional eval.     ....       0.610 sec  (  1.1% of XC)
    XC-Potential eval.      ....      32.024 sec  ( 55.4% of XC)
Diagonalization             ....       2.984 sec  (  0.1%)
Density matrix formation    ....       0.061 sec  (  0.0%)
Population analysis         ....       0.260 sec  (  0.0%)
Initial guess               ....       2.421 sec  (  0.1%)
Orbital Transformation      ....       0.000 sec  (  0.0%)
Orbital Orthonormalization  ....       0.000 sec  (  0.0%)
DIIS solution               ....       1.777 sec  (  0.1%)
Grid generation             ....       2.973 sec  (  0.1%)

-------------------------   --------------------
FINAL SINGLE POINT ENERGY      -995.154924858485
-------------------------   --------------------


                            ***************************************
                            *     ORCA property calculations      *
                            ***************************************

                                    ---------------------
                                    Active property flags
                                    ---------------------
   (+) Dipole Moment
   (+) Polarizability


------------------------------------------------------------------------------
                       ORCA ELECTRIC PROPERTIES CALCULATION
------------------------------------------------------------------------------

Dipole Moment Calculation                       ... on
Quadrupole Moment Calculation                   ... off
Polarizability Calculation                      ... Analytic (CP-SCF)
GBWName                                         ... ocl2_pbe.gbw
Electron density file                           ... ocl2_pbe.scfp.tmp
The origin for moment calculation is the CENTER OF MASS  = ( 0.000000,  0.000000 -0.011524)

-------------
DIPOLE MOMENT
-------------
                                X             Y             Z
Electronic contribution:      0.00000      -0.00000      -0.67018
Nuclear contribution   :      0.00000       0.00000       0.48702
                        -----------------------------------------
Total Dipole Moment    :      0.00000      -0.00000      -0.18316
                        -----------------------------------------
Magnitude (a.u.)       :      0.18316
Magnitude (Debye)      :      0.46556



--------------------
Rotational spectrum 
--------------------
 
Rotational constants in cm-1:     1.395455     0.121890     0.112099 
Rotational constants in MHz : 41834.674961  3654.185098  3360.639190 

 Dipole components along the rotational axes: 
x,y,z [a.u.] :    -0.000000    -0.183160     0.000000 
x,y,z [Debye]:    -0.000000    -0.465555     0.000000 

 
Transforming and storing MO dipole integrals   ... done

                ... starting polarizability calculation

Opening the Dipole integral file               ... (ocl2_pbe.dmo.tmp) done
Reading Dipole-MO integrals                    ... done
Solving CP-SCF equations                       ... 

           ************************************************************
           *        Program running with 4 parallel MPI-processes     *
           *              working on a common directory               *
           ************************************************************

------------------------------------------------------------------------------
                           ORCA CP-SCF CALCULATION
------------------------------------------------------------------------------

Input orbitals are from        ... ocl2_pbe.gbw
Input Perturbation             ... ocl2_pbe.cpv.tmp
Wavefunction output            ... ocl2_pbe.cpu.tmp
Perturbation mode              ... Real perturbation (singlet)
Solver                         ... POPLE
Max. number of iterations      ... 200
Convergence tolerance          ... 1.000e-06
Integral handling              ... Direct
Number of perturbations        ... 3
Number of operators            ... 2
Orbital ranges used for CP-SCF:
 Operator 0:  Orbitals   0... 20  to  21...426
 Operator 1:  Orbitals   0... 20  to  21...426
DFT calculation                         ... on
Exchange functional (SCF)               ... PBE
Exchange functional (CP-SCF)            ... PBE
   PBE kappa parameter  XKappa (SCF)    ...  0.804000
   PBE kappa parameter  XKappa (CP-SCF) ...  0.804000
   PBE mue parameter   XMuePBE (SCF)    ...  0.219520
   PBE mue parameter   XMuePBE (CP-SCF) ...  0.219520
Correlation functional (SCF)            ... PBE
Correlation functional (CP-SCF)         ... PBE
   PBE beta parameter CBetaPBE (SCF)    ...  0.066725
   PBE beta parameter CBetaPBE (CP-SCF) ...  0.066725
 LDA part of GGA corr.  LDAOpt (SCF)    ... PW91-LDA
 LDA part of GGA corr.  LDAOpt (CP-SCF) ... PW91-LDA
Variables per vector in CP-SCF ... 17052
Number of vectors sought       ... 3
Recalculating density on grid  ... done
Calculating the xc-kernel      ... done
     CP-SCF ITERATION   0: 
     CP-SCF ITERATION   1:      2.175815845523
     CP-SCF ITERATION   2:      0.030362446518
     CP-SCF ITERATION   3:      0.003004641812
     CP-SCF ITERATION   4:      0.000086475063
     CP-SCF ITERATION   5:      0.000002049462
     CP-SCF ITERATION   6:      0.000000941283
done
Reading CP-SCF coefficients                    ... done
Doing the polarizability tensor   ... done
Cleaning up                                    ... done

-------------------------
THE POLARIZABILITY TENSOR
-------------------------

The raw cartesian tensor (atomic units):
   30.57704      0.00000      0.00000  
    0.00000     57.28630      0.00000  
    0.00000      0.00000     32.81438  
diagonalized tensor: 
   30.57704     32.81438     57.28630  

    1.00000      0.00000      0.00000  
   -0.00000     -0.00000      1.00000  
   -0.00000      1.00000      0.00000  

Isotropic polarizability :  40.22591


Timings for individual modules:

Sum of individual times         ...     4947.102 sec (=  82.452 min)
GTO integral calculation        ...       18.004 sec (=   0.300 min)   0.4 %
SCF iterations                  ...     3038.766 sec (=  50.646 min)  61.4 %
Solution of CP-SCF eqns.        ...     1890.332 sec (=  31.506 min)  38.2 %
                             ****ORCA TERMINATED NORMALLY****
TOTAL RUN TIME: 0 days 1 hours 22 minutes 28 seconds 319 msec
