
                                 *****************
                                 * O   R   C   A *
                                 *****************

           --- An Ab Initio, DFT and Semiempirical electronic structure package ---

                  #######################################################
                  #                        -***-                        #
                  #          Department of theory and spectroscopy      #
                  #               Directorship: Frank Neese             #
                  #        Max Planck Institute fuer Kohlenforschung    #
                  #                Kaiser Wilhelm Platz 1               #
                  #                 D-45470 Muelheim/Ruhr               #
                  #                      Germany                        #
                  #                                                     #
                  #                  All rights reserved                #
                  #                        -***-                        #
                  #######################################################


                         Program Version 4.1.2  - RELEASE  -


 With contributions from (in alphabetic order):
   Daniel Aravena         : Magnetic Properties
   Michael Atanasov       : Ab Initio Ligand Field Theory
   Alexander A. Auer      : GIAO ZORA
   Ute Becker             : Parallelization
   Giovanni Bistoni       : ED, Open-shell LED
   Martin Brehm           : Molecular dynamics
   Dmytro Bykov           : SCF Hessian
   Vijay G. Chilkuri      : MRCI spin determinant printing
   Dipayan Datta          : RHF DLPNO-CCSD density
   Achintya Kumar Dutta   : EOM-CC, STEOM-CC
   Dmitry Ganyushin       : Spin-Orbit,Spin-Spin,Magnetic field MRCI
   Miquel Garcia          : C-PCM Hessian
   Yang Guo               : DLPNO-NEVPT2, CIM, IAO-localization
   Andreas Hansen         : Spin unrestricted coupled pair/coupled cluster methods
   Benjamin Helmich-Paris : CASSCF linear response (MC-RPA)
   Lee Huntington         : MR-EOM, pCC
   Robert Izsak           : Overlap fitted RIJCOSX, COSX-SCS-MP3, EOM
   Christian Kollmar      : KDIIS, OOCD, Brueckner-CCSD(T), CCSD density
   Simone Kossmann        : Meta GGA functionals, TD-DFT gradient, OOMP2, MP2 Hessian
   Martin Krupicka        : AUTO-CI
   Lucas Lang             : DCDCAS
   Dagmar Lenk            : GEPOL surface, SMD
   Dimitrios Liakos       : Extrapolation schemes; parallel MDCI
   Dimitrios Manganas     : ROCIS; embedding schemes
   Dimitrios Pantazis     : SARC Basis sets
   Taras Petrenko         : DFT Hessian,TD-DFT gradient, ASA, ECA, R-Raman, ABS, FL, XAS/XES, NRVS
   Peter Pinski           : DLPNO-MP2, DLPNO-MP2 Gradient
   Christoph Reimann      : Effective Core Potentials
   Marius Retegan         : Local ZFS, SOC
   Christoph Riplinger    : Optimizer, TS searches, QM/MM, DLPNO-CCSD(T), (RO)-DLPNO pert. Triples
   Tobias Risthaus        : Range-separated hybrids, TD-DFT gradient, RPA, STAB
   Michael Roemelt        : Restricted open shell CIS
   Masaaki Saitow         : Open-shell DLPNO
   Barbara Sandhoefer     : DKH picture change effects
   Avijit Sen             : IP-ROCIS
   Kantharuban Sivalingam : CASSCF convergence, NEVPT2, FIC-MRCI
   Bernardo de Souza      : ESD, SOC TD-DFT
   Georgi Stoychev        : AutoAux, RI-MP2 NMR
   Willem Van den Heuvel  : Paramagnetic NMR
   Boris Wezisla          : Elementary symmetry handling
   Frank Wennmohs         : Technical directorship


 We gratefully acknowledge several colleagues who have allowed us to
 interface, adapt or use parts of their codes:
   Stefan Grimme, W. Hujo, H. Kruse,             : VdW corrections, initial TS optimization,
                  C. Bannwarth                     DFT functionals, gCP, sTDA/sTD-DF
   Ed Valeev                                     : LibInt (2-el integral package), F12 methods
   Garnet Chan, S. Sharma, J. Yang, R. Olivares  : DMRG
   Ulf Ekstrom                                   : XCFun DFT Library
   Mihaly Kallay                                 : mrcc  (arbitrary order and MRCC methods)
   Andreas Klamt, Michael Diedenhofen            : otool_cosmo (COSMO solvation model)
   Jiri Pittner, Ondrej Demel                    : Mk-CCSD
   Frank Weinhold                                : gennbo (NPA and NBO analysis)
   Christopher J. Cramer and Donald G. Truhlar   : smd solvation model
   Lars Goerigk                                  : TD-DFT with DH, B97 family of functionals
   V. Asgeirsson, H. Jonsson                     : NEB implementation
   FAccTs GmbH                                   : IRC, NEB, NEB-TS, Multilevel


 Your calculation uses the libint2 library for the computation of 2-el integrals
 For citations please refer to: http://libint.valeyev.net

 This ORCA versions uses:
   CBLAS   interface :  Fast vector & matrix operations
   LAPACKE interface :  Fast linear algebra routines
   SCALAPACK package :  Parallel linear algebra routines


----- Orbital basis set information -----
Your calculation utilizes the basis: aug-pc-4
   H, C-F              : F. Jensen, J. Chem. Phys. 115, 9113 (2001).
                         F. Jensen, J. Chem. Phys. 116, 7372 (2002).
                         F. Jensen, J. Chem. Phys. 117, 9234 (2002).
   Si-Cl               : F. Jensen, T. Helgaker, J. Chem. Phys. 121, 3463 (2004).
   He-B, Ne-Mg, Al, Ar : F. Jensen, J. Phys. Chem. A 111, 11198 (2007).
   K, Ca, Ga-Kr        : F. Jensen, J. Chem. Phys. 136, 094110 (2012).
   Sc-Zn               : F. Jensen, J. Chem. Phys. 138, 014107 (2013).

================================================================================
                                        WARNINGS
                       Please study these warnings very carefully!
================================================================================


INFO   : the flag for use of LIBINT has been found!

================================================================================
                                       INPUT FILE
================================================================================
NAME = of2_pbe.inp
|  1> !uks pbe nori aug-pc-4 grid7 nofinalgrid verytightscf
|  2> 
|  3> %maxcore 1500
|  4> 
|  5> %pal nprocs 1 end
|  6> 
|  7> %scf
|  8> 	maxiter 200
|  9> end
| 10> %elprop
| 11> 	dipole true
| 12> 	 polar 1
| 13> 	 maxiter 200
| 14> end
| 15> 
| 16> * xyz 0 1
| 17> O 0.0000 0.0000 0.6049
| 18> F 0.0000 1.1003 -0.2688
| 19> F 0.0000 -1.1003 -0.2688
| 20> *
| 21> 
| 22>                          ****END OF INPUT****
================================================================================

                       ****************************
                       * Single Point Calculation *
                       ****************************

---------------------------------
CARTESIAN COORDINATES (ANGSTROEM)
---------------------------------
  O      0.000000    0.000000    0.604900
  F      0.000000    1.100300   -0.268800
  F      0.000000   -1.100300   -0.268800

----------------------------
CARTESIAN COORDINATES (A.U.)
----------------------------
  NO LB      ZA    FRAG     MASS         X           Y           Z
   0 O     8.0000    0    15.999    0.000000    0.000000    1.143095
   1 F     9.0000    0    18.998    0.000000    2.079266   -0.507958
   2 F     9.0000    0    18.998    0.000000   -2.079266   -0.507958

--------------------------------
INTERNAL COORDINATES (ANGSTROEM)
--------------------------------
 O      0   0   0     0.000000000000     0.00000000     0.00000000
 F      1   0   0     1.404995295366     0.00000000     0.00000000
 F      1   2   0     1.404995295366   103.09690222     0.00000000

---------------------------
INTERNAL COORDINATES (A.U.)
---------------------------
 O      0   0   0     0.000000000000     0.00000000     0.00000000
 F      1   0   0     2.655056327689     0.00000000     0.00000000
 F      1   2   0     2.655056327689   103.09690222     0.00000000

---------------------
BASIS SET INFORMATION
---------------------
There are 2 groups of distinct atoms

 Group   1 Type O   : 27s12p7d4f3g2h contracted to 9s8p7d4f3g2h pattern {1191111111/51111111/1111111/1111/111/11}
 Group   2 Type F   : 27s12p7d4f3g2h contracted to 9s8p7d4f3g2h pattern {1191111111/51111111/1111111/1111/111/11}

Atom   0O    basis set group =>   1
Atom   1F    basis set group =>   2
Atom   2F    basis set group =>   2
------------------------------------------------------------------------------
                           ORCA GTO INTEGRAL CALCULATION
------------------------------------------------------------------------------

                         BASIS SET STATISTICS AND STARTUP INFO

 # of primitive gaussian shells          ...  165
 # of primitive gaussian functions       ...  525
 # of contracted shells                  ...   99
 # of contracted basis functions         ...  435
 Highest angular momentum                ...    5
 Maximum contraction depth               ...   11
 Integral package used                   ... LIBINT
 Integral threshhold            Thresh   ...  1.000e-12
 Primitive cut-off              TCut     ...  1.000e-14


------------------------------ INTEGRAL EVALUATION ----------------------------


 * One electron integrals 
 Pre-screening matrix                    ... done
 Shell pair data                         ... done (   0.001 sec)

-------------------------------------------------------------------------------
                                 ORCA SCF
-------------------------------------------------------------------------------

------------
SCF SETTINGS
------------
Hamiltonian:
 Density Functional     Method          .... DFT(GTOs)
 Exchange Functional    Exchange        .... PBE
   PBE kappa parameter   XKappa         ....  0.804000
   PBE mue parameter    XMuePBE         ....  0.219520
 Correlation Functional Correlation     .... PBE
   PBE beta parameter  CBetaPBE         ....  0.066725
 LDA part of GGA corr.  LDAOpt          .... PW91-LDA
 Gradients option       PostSCFGGA      .... off
   Density functional embedding theory  .... OFF
   NL short-range parameter             ....  6.400000


General Settings:
 Integral files         IntName         .... of2_pbe
 Hartree-Fock type      HFTyp           .... UHF
 Total Charge           Charge          ....    0
 Multiplicity           Mult            ....    1
 Number of Electrons    NEL             ....   26
 Basis Dimension        Dim             ....  435
 Nuclear Repulsion      ENuc            ....     73.7141679570 Eh

Convergence Acceleration:
 DIIS                   CNVDIIS         .... on
   Start iteration      DIISMaxIt       ....    12
   Startup error        DIISStart       ....  0.200000
   # of expansion vecs  DIISMaxEq       ....     5
   Bias factor          DIISBfac        ....   1.050
   Max. coefficient     DIISMaxC        ....  10.000
 Newton-Raphson         CNVNR           .... off
 SOSCF                  CNVSOSCF        .... off
 Level Shifting         CNVShift        .... on
   Level shift para.    LevelShift      ....    0.2500
   Turn off err/grad.   ShiftErr        ....    0.0010
 Zerner damping         CNVZerner       .... off
 Static damping         CNVDamp         .... on
   Fraction old density DampFac         ....    0.7000
   Max. Damping (<1)    DampMax         ....    0.9800
   Min. Damping (>=0)   DampMin         ....    0.0000
   Turn off err/grad.   DampErr         ....    0.1000
 Fernandez-Rico         CNVRico         .... off

SCF Procedure:
 Maximum # iterations   MaxIter         ....   200
 SCF integral mode      SCFMode         .... Direct
   Integral package                     .... LIBINT
 Reset frequency        DirectResetFreq ....    20
 Integral Threshold     Thresh          ....  1.000e-12 Eh
 Primitive CutOff       TCut            ....  1.000e-14 Eh

Convergence Tolerance:
 Convergence Check Mode ConvCheckMode   .... Total+1el-Energy
 Convergence forced     ConvForced      .... 0
 Energy Change          TolE            ....  1.000e-09 Eh
 1-El. energy change                    ....  1.000e-06 Eh
 DIIS Error             TolErr          ....  1.000e-08


Diagonalization of the overlap matrix:
Smallest eigenvalue                        ... 3.683e-06
Time for diagonalization                   ...    0.043 sec
Threshold for overlap eigenvalues          ... 1.000e-08
Number of eigenvalues below threshold      ... 0
Time for construction of square roots      ...    0.024 sec
Total time needed                          ...    0.068 sec

-------------------
DFT GRID GENERATION
-------------------

General Integration Accuracy     IntAcc      ...  5.670
Radial Grid Type                 RadialGrid  ... Gauss-Chebyshev
Angular Grid (max. acc.)         AngularGrid ... Lebedev-770
Angular grid pruning method      GridPruning ... 3 (G Style)
Weight generation scheme         WeightScheme... Becke
Basis function cutoff            BFCut       ...    1.0000e-12
Integration weight cutoff        WCut        ...    1.0000e-14
Grids for H and He will be reduced by one unit

# of grid points (after initial pruning)     ...  75990 (   0.0 sec)
# of grid points (after weights+screening)   ...  75450 (   0.0 sec)
nearest neighbour list constructed           ...    0.0 sec
Grid point re-assignment to atoms done       ...    0.0 sec
Grid point division into batches done        ...    1.7 sec
Reduced shell lists constructed in    2.7 sec

Total number of grid points                  ...    75450
Total number of batches                      ...     1180
Average number of points per batch           ...       63
Average number of grid points per atom       ...    25150
Average number of shells per batch           ...    67.07 (67.74%)
Average number of basis functions per batch  ...   310.83 (71.45%)
Average number of large shells per batch     ...    58.69 (87.51%)
Average number of large basis fcns per batch ...   271.79 (87.44%)
Maximum spatial batch extension              ...  13.07, 21.24, 19.28 au
Average spatial batch extension              ...   2.12,  2.06,  2.11 au

Time for grid setup =    2.749 sec

------------------------------
INITIAL GUESS: MODEL POTENTIAL
------------------------------
Loading Hartree-Fock densities                     ... done
Calculating cut-offs                               ... done
Setting up the integral package                    ... done
Initializing the effective Hamiltonian             ... done
Starting the Coulomb interaction                   ... done (   0.1 sec)
Reading the grid                                   ... done
Mapping shells                                     ... done
Starting the XC term evaluation                    ... done (   5.6 sec)
  promolecular density results
     # of electrons  =     26.000000458
     EX              =    -28.032136020
     EC              =     -0.895075470
     EX+EC           =    -28.927211490
Transforming the Hamiltonian                       ... done (   0.0 sec)
Diagonalizing the Hamiltonian                      ... done (   0.0 sec)
Back transforming the eigenvectors                 ... done (   0.0 sec)
Now organizing SCF variables                       ... done
                      ------------------
                      INITIAL GUESS DONE (   8.7 sec)
                      ------------------
--------------
SCF ITERATIONS
--------------
ITER       Energy         Delta-E        Max-DP      RMS-DP      [F,P]     Damp
               ***  Starting incremental Fock matrix formation  ***
  0   -274.5320176218   0.000000000000 0.00813180  0.00006586  0.1025072 0.7000
  1   -274.5476420366  -0.015624414845 0.00429519  0.00003090  0.0552055 0.7000
                               ***Turning on DIIS***
  2   -274.5518465242  -0.004204487561 0.00544454  0.00006231  0.0297823 0.0000
  3   -274.5635315574  -0.011685033207 0.00193550  0.00001958  0.0224468 0.0000
  4   -274.5645550711  -0.001023513669 0.00041767  0.00000515  0.0036193 0.0000
  5   -274.5645748430  -0.000019771961 0.00010183  0.00000131  0.0013434 0.0000
  6   -274.5645768852  -0.000002042142 0.00006709  0.00000068  0.0002709 0.0000
  7   -274.5645767788   0.000000106432 0.00002542  0.00000027  0.0004428 0.0000
  8   -274.5645770575  -0.000000278753 0.00000202  0.00000003  0.0000191 0.0000
  9   -274.5645770579  -0.000000000422 0.00000099  0.00000001  0.0000094 0.0000
 10   -274.5645770581  -0.000000000174 0.00000176  0.00000001  0.0000020 0.0000
 11   -274.5645770581  -0.000000000022 0.00000248  0.00000003  0.0000006 0.0000
 12   -274.5645770581   0.000000000005 0.00000686  0.00000008  0.0000002 0.0000
                 **** Energy Check signals convergence ****

               *****************************************************
               *                     SUCCESS                       *
               *           SCF CONVERGED AFTER  13 CYCLES          *
               *****************************************************


----------------
TOTAL SCF ENERGY
----------------

Total Energy       :         -274.56457706 Eh           -7471.28197 eV

Components:
Nuclear Repulsion  :           73.71416796 Eh            2005.86449 eV
Electronic Energy  :         -348.27874502 Eh           -9477.14646 eV
One Electron Energy:         -527.94089191 Eh          -14366.00202 eV
Two Electron Energy:          179.66214690 Eh            4888.85556 eV

Virial components:
Potential Energy   :         -548.41857040 Eh          -14923.22798 eV
Kinetic Energy     :          273.85399334 Eh            7451.94601 eV
Virial Ratio       :            2.00259475


DFT components:
N(Alpha)           :       13.000000323240 electrons
N(Beta)            :       13.000000323240 electrons
N(Total)           :       26.000000646480 electrons
E(X)               :      -28.127963467603 Eh       
E(C)               :       -0.888870500876 Eh       
E(XC)              :      -29.016833968478 Eh       
DFET-embed. en.    :        0.000000000000 Eh       

---------------
SCF CONVERGENCE
---------------

  Last Energy change         ...    1.0175e-11  Tolerance :   1.0000e-09
  Last MAX-Density change    ...    1.7880e-05  Tolerance :   1.0000e-08
  Last RMS-Density change    ...    8.5604e-08  Tolerance :   1.0000e-09
  Last DIIS Error            ...    1.5121e-07  Tolerance :   1.0000e-08

             **** THE GBW FILE WAS UPDATED (of2_pbe.gbw) ****
             **** DENSITY FILE WAS UPDATED (of2_pbe.scfp.tmp) ****
             **** ENERGY FILE WAS UPDATED (of2_pbe.en.tmp) ****
----------------------
UHF SPIN CONTAMINATION
----------------------

Warning: in a DFT calculation there is little theoretical justification to 
         calculate <S**2> as in Hartree-Fock theory. We will do it anyways
         but you should keep in mind that the values have only limited relevance

Expectation value of <S**2>     :    -0.000000
Ideal value S*(S+1) for S=0.0   :     0.000000
Deviation                       :    -0.000000

----------------
ORBITAL ENERGIES
----------------
                 SPIN UP ORBITALS
  NO   OCC          E(Eh)            E(eV) 
   0   1.0000     -24.340900      -662.3496 
   1   1.0000     -24.340900      -662.3496 
   2   1.0000     -18.967513      -516.1323 
   3   1.0000      -1.244329       -33.8599 
   4   1.0000      -1.136935       -30.9376 
   5   1.0000      -0.867613       -23.6090 
   6   1.0000      -0.579627       -15.7725 
   7   1.0000      -0.525073       -14.2880 
   8   1.0000      -0.484192       -13.1755 
   9   1.0000      -0.401735       -10.9318 
  10   1.0000      -0.399704       -10.8765 
  11   1.0000      -0.388135       -10.5617 
  12   1.0000      -0.281024        -7.6470 
  13   0.0000      -0.151816        -4.1311 
  14   0.0000      -0.123696        -3.3659 
  15   0.0000      -0.000358        -0.0098 
  16   0.0000       0.025800         0.7021 
  17   0.0000       0.028954         0.7879 
  18   0.0000       0.029217         0.7950 
  19   0.0000       0.062210         1.6928 
  20   0.0000       0.069086         1.8799 
  21   0.0000       0.073247         1.9932 
  22   0.0000       0.074539         2.0283 
  23   0.0000       0.075923         2.0660 
  24   0.0000       0.103981         2.8295 
  25   0.0000       0.128646         3.5006 
  26   0.0000       0.135276         3.6810 
  27   0.0000       0.138709         3.7745 
  28   0.0000       0.148027         4.0280 
  29   0.0000       0.171139         4.6569 
  30   0.0000       0.181166         4.9298 
  31   0.0000       0.189346         5.1524 
  32   0.0000       0.200546         5.4571 
  33   0.0000       0.210771         5.7354 
  34   0.0000       0.211796         5.7633 
  35   0.0000       0.224746         6.1157 
  36   0.0000       0.238470         6.4891 
  37   0.0000       0.241407         6.5690 
  38   0.0000       0.243166         6.6169 
  39   0.0000       0.256078         6.9682 
  40   0.0000       0.273935         7.4542 
  41   0.0000       0.299082         8.1384 
  42   0.0000       0.302127         8.2213 
  43   0.0000       0.321450         8.7471 
  44   0.0000       0.324475         8.8294 
  45   0.0000       0.338132         9.2010 
  46   0.0000       0.342371         9.3164 
  47   0.0000       0.360321         9.8048 
  48   0.0000       0.365267         9.9394 
  49   0.0000       0.393966        10.7204 
  50   0.0000       0.394128        10.7248 
  51   0.0000       0.397556        10.8180 
  52   0.0000       0.417959        11.3732 
  53   0.0000       0.430070        11.7028 
  54   0.0000       0.435601        11.8533 
  55   0.0000       0.441847        12.0233 
  56   0.0000       0.464664        12.6441 
  57   0.0000       0.485540        13.2122 
  58   0.0000       0.493806        13.4372 
  59   0.0000       0.503295        13.6954 
  60   0.0000       0.510550        13.8928 
  61   0.0000       0.530049        14.4234 
  62   0.0000       0.536393        14.5960 
  63   0.0000       0.559325        15.2200 
  64   0.0000       0.576064        15.6755 
  65   0.0000       0.588617        16.0171 
  66   0.0000       0.597186        16.2503 
  67   0.0000       0.603959        16.4346 
  68   0.0000       0.612974        16.6799 
  69   0.0000       0.619436        16.8557 
  70   0.0000       0.625264        17.0143 
  71   0.0000       0.625650        17.0248 
  72   0.0000       0.631844        17.1933 
  73   0.0000       0.634341        17.2613 
  74   0.0000       0.647254        17.6127 
  75   0.0000       0.666362        18.1326 
  76   0.0000       0.666815        18.1450 
  77   0.0000       0.674545        18.3553 
  78   0.0000       0.675875        18.3915 
  79   0.0000       0.687337        18.7034 
  80   0.0000       0.712166        19.3790 
  81   0.0000       0.713318        19.4104 
  82   0.0000       0.725431        19.7400 
  83   0.0000       0.750891        20.4328 
  84   0.0000       0.755740        20.5647 
  85   0.0000       0.776933        21.1414 
  86   0.0000       0.785177        21.3657 
  87   0.0000       0.810651        22.0589 
  88   0.0000       0.810897        22.0656 
  89   0.0000       0.815072        22.1792 
  90   0.0000       0.878444        23.9037 
  91   0.0000       0.883554        24.0427 
  92   0.0000       0.891186        24.2504 
  93   0.0000       0.891857        24.2687 
  94   0.0000       0.899141        24.4669 
  95   0.0000       0.927772        25.2460 
  96   0.0000       0.930243        25.3132 
  97   0.0000       0.937643        25.5146 
  98   0.0000       0.943392        25.6710 
  99   0.0000       0.952196        25.9106 
 100   0.0000       0.970226        26.4012 
 101   0.0000       0.971552        26.4373 
 102   0.0000       0.985396        26.8140 
 103   0.0000       1.001017        27.2391 
 104   0.0000       1.011544        27.5255 
 105   0.0000       1.040646        28.3174 
 106   0.0000       1.054174        28.6855 
 107   0.0000       1.058779        28.8108 
 108   0.0000       1.059204        28.8224 
 109   0.0000       1.067083        29.0368 
 110   0.0000       1.071836        29.1662 
 111   0.0000       1.097939        29.8764 
 112   0.0000       1.109551        30.1924 
 113   0.0000       1.112357        30.2688 
 114   0.0000       1.134723        30.8774 
 115   0.0000       1.140576        31.0366 
 116   0.0000       1.155510        31.4430 
 117   0.0000       1.158978        31.5374 
 118   0.0000       1.179417        32.0936 
 119   0.0000       1.180561        32.1247 
 120   0.0000       1.193670        32.4814 
 121   0.0000       1.197868        32.5956 
 122   0.0000       1.200370        32.6637 
 123   0.0000       1.240977        33.7687 
 124   0.0000       1.251941        34.0670 
 125   0.0000       1.264404        34.4062 
 126   0.0000       1.271345        34.5951 
 127   0.0000       1.272614        34.6296 
 128   0.0000       1.293999        35.2115 
 129   0.0000       1.297119        35.2964 
 130   0.0000       1.302347        35.4387 
 131   0.0000       1.313778        35.7497 
 132   0.0000       1.321481        35.9593 
 133   0.0000       1.330149        36.1952 
 134   0.0000       1.343153        36.5491 
 135   0.0000       1.356727        36.9184 
 136   0.0000       1.369739        37.2725 
 137   0.0000       1.382774        37.6272 
 138   0.0000       1.387701        37.7613 
 139   0.0000       1.404540        38.2195 
 140   0.0000       1.406161        38.2636 
 141   0.0000       1.414852        38.5001 
 142   0.0000       1.428533        38.8724 
 143   0.0000       1.436327        39.0844 
 144   0.0000       1.438047        39.1312 
 145   0.0000       1.473429        40.0940 
 146   0.0000       1.486579        40.4519 
 147   0.0000       1.506852        41.0035 
 148   0.0000       1.535671        41.7877 
 149   0.0000       1.539742        41.8985 
 150   0.0000       1.552137        42.2358 
 151   0.0000       1.582841        43.0713 
 152   0.0000       1.586821        43.1796 
 153   0.0000       1.608262        43.7630 
 154   0.0000       1.639271        44.6068 
 155   0.0000       1.683305        45.8051 
 156   0.0000       1.699431        46.2439 
 157   0.0000       1.701544        46.3014 
 158   0.0000       1.748314        47.5741 
 159   0.0000       1.774876        48.2968 
 160   0.0000       1.822350        49.5887 
 161   0.0000       1.850566        50.3564 
 162   0.0000       1.860139        50.6170 
 163   0.0000       1.894602        51.5547 
 164   0.0000       1.947762        53.0013 
 165   0.0000       1.948427        53.0194 
 166   0.0000       2.081465        56.6396 
 167   0.0000       2.156275        58.6752 
 168   0.0000       2.169588        59.0375 
 169   0.0000       2.179736        59.3136 
 170   0.0000       2.210802        60.1590 
 171   0.0000       2.243978        61.0617 
 172   0.0000       2.256017        61.3893 
 173   0.0000       2.259648        61.4881 
 174   0.0000       2.313444        62.9520 
 175   0.0000       2.333960        63.5103 
 176   0.0000       2.352685        64.0198 
 177   0.0000       2.353150        64.0325 
 178   0.0000       2.383602        64.8611 
 179   0.0000       2.456954        66.8571 
 180   0.0000       2.468566        67.1731 
 181   0.0000       2.478440        67.4418 
 182   0.0000       2.483676        67.5843 
 183   0.0000       2.506261        68.1988 
 184   0.0000       2.522789        68.6486 
 185   0.0000       2.605726        70.9054 
 186   0.0000       2.639586        71.8268 
 187   0.0000       2.643486        71.9329 
 188   0.0000       2.655635        72.2635 
 189   0.0000       2.691937        73.2513 
 190   0.0000       2.756529        75.0090 
 191   0.0000       2.767297        75.3020 
 192   0.0000       2.768362        75.3310 
 193   0.0000       2.840593        77.2965 
 194   0.0000       2.859330        77.8063 
 195   0.0000       2.936707        79.9119 
 196   0.0000       3.050741        83.0149 
 197   0.0000       3.081171        83.8429 
 198   0.0000       3.192847        86.8818 
 199   0.0000       3.264015        88.8184 
 200   0.0000       3.297700        89.7350 
 201   0.0000       3.356210        91.3271 
 202   0.0000       3.386859        92.1611 
 203   0.0000       3.440023        93.6078 
 204   0.0000       3.496211        95.1367 
 205   0.0000       3.663117        99.6785 
 206   0.0000       3.809042       103.6493 
 207   0.0000       4.123510       112.2064 
 208   0.0000       4.149422       112.9115 
 209   0.0000       4.183664       113.8433 
 210   0.0000       4.280015       116.4651 
 211   0.0000       4.387316       119.3849 
 212   0.0000       4.392096       119.5150 
 213   0.0000       4.411154       120.0336 
 214   0.0000       4.803086       130.6986 
 215   0.0000       4.822210       131.2190 
 216   0.0000       5.163479       140.5054 
 217   0.0000       5.196661       141.4083 
 218   0.0000       5.210453       141.7836 
 219   0.0000       5.272476       143.4714 
 220   0.0000       5.297162       144.1431 
 221   0.0000       5.297540       144.1534 
 222   0.0000       5.322068       144.8208 
 223   0.0000       5.331672       145.0822 
 224   0.0000       5.367915       146.0684 
 225   0.0000       5.392994       146.7508 
 226   0.0000       5.412132       147.2716 
 227   0.0000       5.414446       147.3346 
 228   0.0000       5.436615       147.9378 
 229   0.0000       5.519176       150.1844 
 230   0.0000       5.528517       150.4386 
 231   0.0000       5.636596       153.3796 
 232   0.0000       5.709041       155.3509 
 233   0.0000       5.729631       155.9112 
 234   0.0000       5.767221       156.9341 
 235   0.0000       5.790177       157.5587 
 236   0.0000       5.821151       158.4016 
 237   0.0000       5.838688       158.8788 
 238   0.0000       5.909172       160.7968 
 239   0.0000       5.962940       162.2598 
 240   0.0000       5.969979       162.4514 
 241   0.0000       6.007850       163.4819 
 242   0.0000       6.196043       168.6029 
 243   0.0000       6.227609       169.4618 
 244   0.0000       6.237125       169.7208 
 245   0.0000       6.261066       170.3723 
 246   0.0000       6.270599       170.6317 
 247   0.0000       6.312722       171.7779 
 248   0.0000       6.363139       173.1498 
 249   0.0000       6.389069       173.8554 
 250   0.0000       6.431082       174.9986 
 251   0.0000       6.436828       175.1550 
 252   0.0000       6.450006       175.5136 
 253   0.0000       6.475936       176.2192 
 254   0.0000       6.489299       176.5828 
 255   0.0000       6.552173       178.2937 
 256   0.0000       6.924510       188.4255 
 257   0.0000       6.990959       190.2337 
 258   0.0000       7.063093       192.1965 
 259   0.0000       7.063865       192.2175 
 260   0.0000       7.083296       192.7463 
 261   0.0000       7.088721       192.8939 
 262   0.0000       7.164026       194.9430 
 263   0.0000       7.169999       195.1056 
 264   0.0000       7.179596       195.3667 
 265   0.0000       7.203335       196.0127 
 266   0.0000       7.211579       196.2370 
 267   0.0000       7.233740       196.8401 
 268   0.0000       7.342345       199.7954 
 269   0.0000       7.637919       207.8383 
 270   0.0000       7.737110       210.5375 
 271   0.0000       7.948226       216.2822 
 272   0.0000       7.966352       216.7755 
 273   0.0000       8.138869       221.4699 
 274   0.0000       8.247912       224.4371 
 275   0.0000       8.485739       230.9087 
 276   0.0000       8.777306       238.8426 
 277   0.0000       8.889816       241.9042 
 278   0.0000       8.967440       244.0164 
 279   0.0000       9.211398       250.6549 
 280   0.0000       9.277284       252.4477 
 281   0.0000       9.441013       256.9030 
 282   0.0000       9.526762       259.2364 
 283   0.0000       9.648419       262.5468 
 284   0.0000       9.655081       262.7281 
 285   0.0000      10.307723       280.4874 
 286   0.0000      10.481555       285.2176 
 287   0.0000      10.774779       293.1966 
 288   0.0000      10.966545       298.4149 
 289   0.0000      11.569484       314.8217 
 290   0.0000      11.572129       314.8936 
 291   0.0000      11.616488       316.1007 
 292   0.0000      11.658989       317.2572 
 293   0.0000      11.744704       319.5896 
 294   0.0000      11.753636       319.8327 
 295   0.0000      11.753712       319.8348 
 296   0.0000      11.794715       320.9505 
 297   0.0000      11.804732       321.2231 
 298   0.0000      11.855436       322.6028 
 299   0.0000      11.912912       324.1668 
 300   0.0000      12.072729       328.5157 
 301   0.0000      12.084510       328.8362 
 302   0.0000      12.134641       330.2004 
 303   0.0000      12.275661       334.0377 
 304   0.0000      12.304456       334.8213 
 305   0.0000      12.311826       335.0218 
 306   0.0000      12.535518       341.1088 
 307   0.0000      12.539571       341.2191 
 308   0.0000      12.542541       341.2999 
 309   0.0000      12.573373       342.1389 
 310   0.0000      12.605460       343.0120 
 311   0.0000      12.627616       343.6149 
 312   0.0000      12.635867       343.8394 
 313   0.0000      12.644586       344.0767 
 314   0.0000      12.644910       344.0855 
 315   0.0000      12.645875       344.1117 
 316   0.0000      12.646200       344.1206 
 317   0.0000      12.651725       344.2709 
 318   0.0000      12.673335       344.8590 
 319   0.0000      12.716709       346.0392 
 320   0.0000      12.795470       348.1824 
 321   0.0000      12.816563       348.7564 
 322   0.0000      12.859291       349.9191 
 323   0.0000      12.901747       351.0744 
 324   0.0000      12.943168       352.2015 
 325   0.0000      12.959874       352.6561 
 326   0.0000      12.990518       353.4900 
 327   0.0000      13.014398       354.1398 
 328   0.0000      13.027077       354.4848 
 329   0.0000      13.510134       367.6294 
 330   0.0000      13.622030       370.6743 
 331   0.0000      13.763324       374.5191 
 332   0.0000      13.818551       376.0219 
 333   0.0000      13.933518       379.1503 
 334   0.0000      13.933785       379.1576 
 335   0.0000      14.028661       381.7393 
 336   0.0000      14.055422       382.4675 
 337   0.0000      14.084550       383.2601 
 338   0.0000      14.235853       387.3772 
 339   0.0000      14.278045       388.5253 
 340   0.0000      14.319390       389.6504 
 341   0.0000      14.495593       394.4451 
 342   0.0000      14.519830       395.1047 
 343   0.0000      14.556010       396.0892 
 344   0.0000      14.619453       397.8155 
 345   0.0000      14.823263       403.3615 
 346   0.0000      15.019712       408.7071 
 347   0.0000      15.029262       408.9670 
 348   0.0000      15.031485       409.0275 
 349   0.0000      15.058344       409.7584 
 350   0.0000      15.089609       410.6091 
 351   0.0000      15.190713       413.3603 
 352   0.0000      15.221095       414.1870 
 353   0.0000      15.263722       415.3470 
 354   0.0000      15.337704       417.3601 
 355   0.0000      15.568031       423.6277 
 356   0.0000      15.663126       426.2153 
 357   0.0000      16.316912       444.0058 
 358   0.0000      16.328726       444.3272 
 359   0.0000      16.347814       444.8466 
 360   0.0000      16.398184       446.2173 
 361   0.0000      17.104819       465.4458 
 362   0.0000      17.271875       469.9916 
 363   0.0000      17.379225       472.9127 
 364   0.0000      17.666701       480.7354 
 365   0.0000      17.916212       487.5249 
 366   0.0000      18.061206       491.4704 
 367   0.0000      18.133039       493.4251 
 368   0.0000      18.354433       499.4495 
 369   0.0000      18.604364       506.2505 
 370   0.0000      19.343394       526.3605 
 371   0.0000      19.882981       541.0434 
 372   0.0000      20.061159       545.8919 
 373   0.0000      20.065557       546.0116 
 374   0.0000      20.066037       546.0246 
 375   0.0000      20.070592       546.1486 
 376   0.0000      20.092649       546.7488 
 377   0.0000      20.126900       547.6808 
 378   0.0000      20.132938       547.8451 
 379   0.0000      20.145242       548.1799 
 380   0.0000      20.545142       559.0617 
 381   0.0000      20.565456       559.6145 
 382   0.0000      20.584775       560.1402 
 383   0.0000      20.714892       563.6809 
 384   0.0000      21.567392       586.8786 
 385   0.0000      21.588358       587.4491 
 386   0.0000      21.632339       588.6459 
 387   0.0000      21.931442       596.7849 
 388   0.0000      22.280916       606.2945 
 389   0.0000      22.282631       606.3412 
 390   0.0000      23.163754       630.3178 
 391   0.0000      23.309503       634.2838 
 392   0.0000      23.399336       636.7283 
 393   0.0000      24.319911       661.7784 
 394   0.0000      25.093588       682.8312 
 395   0.0000      29.953507       815.0764 
 396   0.0000      30.264087       823.5277 
 397   0.0000      30.372569       826.4796 
 398   0.0000      30.398520       827.1858 
 399   0.0000      30.414965       827.6333 
 400   0.0000      30.527516       830.6959 
 401   0.0000      30.529105       830.7392 
 402   0.0000      30.608116       832.8892 
 403   0.0000      30.657277       834.2269 
 404   0.0000      31.524375       857.8218 
 405   0.0000      31.535936       858.1365 
 406   0.0000      31.809000       865.5669 
 407   0.0000      33.240995       904.5335 
 408   0.0000      33.452739       910.2953 
 409   0.0000      41.488585      1128.9618 
 410   0.0000      41.490006      1129.0005 
 411   0.0000      41.498150      1129.2221 
 412   0.0000      41.701418      1134.7533 
 413   0.0000      41.812958      1137.7884 
 414   0.0000      42.027647      1143.6304 
 415   0.0000      43.595109      1186.2832 
 416   0.0000      43.648503      1187.7361 
 417   0.0000      66.503410      1809.6498 
 418   0.0000      66.563939      1811.2969 
 419   0.0000      66.615802      1812.7081 
 420   0.0000      67.047350      1824.4512 
 421   0.0000      67.640602      1840.5944 
 422   0.0000      91.195860      2481.5655 
 423   0.0000      91.268045      2483.5298 
 424   0.0000      91.286280      2484.0260 
 425   0.0000      91.297039      2484.3187 
 426   0.0000      91.359390      2486.0154 
 427   0.0000      91.369734      2486.2969 
 428   0.0000      91.425402      2487.8117 
 429   0.0000      91.440512      2488.2228 
 430   0.0000      92.105268      2506.3118 
 431   0.0000      92.154850      2507.6610 
 432   0.0000     143.066996      3893.0509 
 433   0.0000     201.647140      5487.0976 
 434   0.0000     201.974074      5495.9940 

                 SPIN DOWN ORBITALS
  NO   OCC          E(Eh)            E(eV) 
   0   1.0000     -24.340900      -662.3496 
   1   1.0000     -24.340900      -662.3496 
   2   1.0000     -18.967513      -516.1323 
   3   1.0000      -1.244329       -33.8599 
   4   1.0000      -1.136935       -30.9376 
   5   1.0000      -0.867613       -23.6090 
   6   1.0000      -0.579627       -15.7725 
   7   1.0000      -0.525073       -14.2880 
   8   1.0000      -0.484192       -13.1755 
   9   1.0000      -0.401735       -10.9318 
  10   1.0000      -0.399704       -10.8765 
  11   1.0000      -0.388135       -10.5617 
  12   1.0000      -0.281024        -7.6470 
  13   0.0000      -0.151816        -4.1311 
  14   0.0000      -0.123696        -3.3659 
  15   0.0000      -0.000358        -0.0098 
  16   0.0000       0.025800         0.7021 
  17   0.0000       0.028954         0.7879 
  18   0.0000       0.029217         0.7950 
  19   0.0000       0.062210         1.6928 
  20   0.0000       0.069086         1.8799 
  21   0.0000       0.073247         1.9932 
  22   0.0000       0.074539         2.0283 
  23   0.0000       0.075923         2.0660 
  24   0.0000       0.103981         2.8295 
  25   0.0000       0.128646         3.5006 
  26   0.0000       0.135276         3.6810 
  27   0.0000       0.138709         3.7745 
  28   0.0000       0.148027         4.0280 
  29   0.0000       0.171139         4.6569 
  30   0.0000       0.181166         4.9298 
  31   0.0000       0.189346         5.1524 
  32   0.0000       0.200546         5.4571 
  33   0.0000       0.210771         5.7354 
  34   0.0000       0.211796         5.7633 
  35   0.0000       0.224746         6.1157 
  36   0.0000       0.238470         6.4891 
  37   0.0000       0.241407         6.5690 
  38   0.0000       0.243166         6.6169 
  39   0.0000       0.256078         6.9682 
  40   0.0000       0.273935         7.4542 
  41   0.0000       0.299082         8.1384 
  42   0.0000       0.302127         8.2213 
  43   0.0000       0.321450         8.7471 
  44   0.0000       0.324475         8.8294 
  45   0.0000       0.338132         9.2010 
  46   0.0000       0.342371         9.3164 
  47   0.0000       0.360321         9.8048 
  48   0.0000       0.365267         9.9394 
  49   0.0000       0.393966        10.7204 
  50   0.0000       0.394128        10.7248 
  51   0.0000       0.397556        10.8180 
  52   0.0000       0.417959        11.3732 
  53   0.0000       0.430070        11.7028 
  54   0.0000       0.435601        11.8533 
  55   0.0000       0.441847        12.0233 
  56   0.0000       0.464664        12.6441 
  57   0.0000       0.485540        13.2122 
  58   0.0000       0.493806        13.4372 
  59   0.0000       0.503295        13.6954 
  60   0.0000       0.510550        13.8928 
  61   0.0000       0.530049        14.4234 
  62   0.0000       0.536393        14.5960 
  63   0.0000       0.559325        15.2200 
  64   0.0000       0.576064        15.6755 
  65   0.0000       0.588617        16.0171 
  66   0.0000       0.597186        16.2503 
  67   0.0000       0.603959        16.4346 
  68   0.0000       0.612974        16.6799 
  69   0.0000       0.619436        16.8557 
  70   0.0000       0.625264        17.0143 
  71   0.0000       0.625650        17.0248 
  72   0.0000       0.631844        17.1933 
  73   0.0000       0.634341        17.2613 
  74   0.0000       0.647254        17.6127 
  75   0.0000       0.666362        18.1326 
  76   0.0000       0.666815        18.1450 
  77   0.0000       0.674545        18.3553 
  78   0.0000       0.675875        18.3915 
  79   0.0000       0.687337        18.7034 
  80   0.0000       0.712166        19.3790 
  81   0.0000       0.713318        19.4104 
  82   0.0000       0.725431        19.7400 
  83   0.0000       0.750891        20.4328 
  84   0.0000       0.755740        20.5647 
  85   0.0000       0.776933        21.1414 
  86   0.0000       0.785177        21.3657 
  87   0.0000       0.810651        22.0589 
  88   0.0000       0.810897        22.0656 
  89   0.0000       0.815072        22.1792 
  90   0.0000       0.878444        23.9037 
  91   0.0000       0.883554        24.0427 
  92   0.0000       0.891186        24.2504 
  93   0.0000       0.891857        24.2687 
  94   0.0000       0.899141        24.4669 
  95   0.0000       0.927772        25.2460 
  96   0.0000       0.930243        25.3132 
  97   0.0000       0.937643        25.5146 
  98   0.0000       0.943392        25.6710 
  99   0.0000       0.952196        25.9106 
 100   0.0000       0.970226        26.4012 
 101   0.0000       0.971552        26.4373 
 102   0.0000       0.985396        26.8140 
 103   0.0000       1.001017        27.2391 
 104   0.0000       1.011544        27.5255 
 105   0.0000       1.040646        28.3174 
 106   0.0000       1.054174        28.6855 
 107   0.0000       1.058779        28.8108 
 108   0.0000       1.059204        28.8224 
 109   0.0000       1.067083        29.0368 
 110   0.0000       1.071836        29.1662 
 111   0.0000       1.097939        29.8764 
 112   0.0000       1.109551        30.1924 
 113   0.0000       1.112357        30.2688 
 114   0.0000       1.134723        30.8774 
 115   0.0000       1.140576        31.0366 
 116   0.0000       1.155510        31.4430 
 117   0.0000       1.158978        31.5374 
 118   0.0000       1.179417        32.0936 
 119   0.0000       1.180561        32.1247 
 120   0.0000       1.193670        32.4814 
 121   0.0000       1.197868        32.5956 
 122   0.0000       1.200370        32.6637 
 123   0.0000       1.240977        33.7687 
 124   0.0000       1.251941        34.0670 
 125   0.0000       1.264404        34.4062 
 126   0.0000       1.271345        34.5951 
 127   0.0000       1.272614        34.6296 
 128   0.0000       1.293999        35.2115 
 129   0.0000       1.297119        35.2964 
 130   0.0000       1.302347        35.4387 
 131   0.0000       1.313778        35.7497 
 132   0.0000       1.321481        35.9593 
 133   0.0000       1.330149        36.1952 
 134   0.0000       1.343153        36.5491 
 135   0.0000       1.356727        36.9184 
 136   0.0000       1.369739        37.2725 
 137   0.0000       1.382774        37.6272 
 138   0.0000       1.387701        37.7613 
 139   0.0000       1.404540        38.2195 
 140   0.0000       1.406161        38.2636 
 141   0.0000       1.414852        38.5001 
 142   0.0000       1.428533        38.8724 
 143   0.0000       1.436327        39.0844 
 144   0.0000       1.438047        39.1312 
 145   0.0000       1.473429        40.0940 
 146   0.0000       1.486579        40.4519 
 147   0.0000       1.506852        41.0035 
 148   0.0000       1.535671        41.7877 
 149   0.0000       1.539742        41.8985 
 150   0.0000       1.552137        42.2358 
 151   0.0000       1.582841        43.0713 
 152   0.0000       1.586821        43.1796 
 153   0.0000       1.608262        43.7630 
 154   0.0000       1.639271        44.6068 
 155   0.0000       1.683305        45.8051 
 156   0.0000       1.699431        46.2439 
 157   0.0000       1.701544        46.3014 
 158   0.0000       1.748314        47.5741 
 159   0.0000       1.774876        48.2968 
 160   0.0000       1.822350        49.5887 
 161   0.0000       1.850566        50.3564 
 162   0.0000       1.860139        50.6170 
 163   0.0000       1.894602        51.5547 
 164   0.0000       1.947762        53.0013 
 165   0.0000       1.948427        53.0194 
 166   0.0000       2.081465        56.6396 
 167   0.0000       2.156275        58.6752 
 168   0.0000       2.169588        59.0375 
 169   0.0000       2.179736        59.3136 
 170   0.0000       2.210802        60.1590 
 171   0.0000       2.243978        61.0617 
 172   0.0000       2.256017        61.3893 
 173   0.0000       2.259648        61.4881 
 174   0.0000       2.313444        62.9520 
 175   0.0000       2.333960        63.5103 
 176   0.0000       2.352685        64.0198 
 177   0.0000       2.353150        64.0325 
 178   0.0000       2.383602        64.8611 
 179   0.0000       2.456954        66.8571 
 180   0.0000       2.468566        67.1731 
 181   0.0000       2.478440        67.4418 
 182   0.0000       2.483676        67.5843 
 183   0.0000       2.506261        68.1988 
 184   0.0000       2.522789        68.6486 
 185   0.0000       2.605726        70.9054 
 186   0.0000       2.639586        71.8268 
 187   0.0000       2.643486        71.9329 
 188   0.0000       2.655635        72.2635 
 189   0.0000       2.691937        73.2513 
 190   0.0000       2.756529        75.0090 
 191   0.0000       2.767297        75.3020 
 192   0.0000       2.768362        75.3310 
 193   0.0000       2.840593        77.2965 
 194   0.0000       2.859330        77.8063 
 195   0.0000       2.936707        79.9119 
 196   0.0000       3.050741        83.0149 
 197   0.0000       3.081171        83.8429 
 198   0.0000       3.192847        86.8818 
 199   0.0000       3.264015        88.8184 
 200   0.0000       3.297700        89.7350 
 201   0.0000       3.356210        91.3271 
 202   0.0000       3.386859        92.1611 
 203   0.0000       3.440023        93.6078 
 204   0.0000       3.496211        95.1367 
 205   0.0000       3.663117        99.6785 
 206   0.0000       3.809042       103.6493 
 207   0.0000       4.123510       112.2064 
 208   0.0000       4.149422       112.9115 
 209   0.0000       4.183664       113.8433 
 210   0.0000       4.280015       116.4651 
 211   0.0000       4.387316       119.3849 
 212   0.0000       4.392096       119.5150 
 213   0.0000       4.411154       120.0336 
 214   0.0000       4.803086       130.6986 
 215   0.0000       4.822210       131.2190 
 216   0.0000       5.163479       140.5054 
 217   0.0000       5.196661       141.4083 
 218   0.0000       5.210453       141.7836 
 219   0.0000       5.272476       143.4714 
 220   0.0000       5.297162       144.1431 
 221   0.0000       5.297540       144.1534 
 222   0.0000       5.322068       144.8208 
 223   0.0000       5.331672       145.0822 
 224   0.0000       5.367915       146.0684 
 225   0.0000       5.392994       146.7508 
 226   0.0000       5.412132       147.2716 
 227   0.0000       5.414446       147.3346 
 228   0.0000       5.436615       147.9378 
 229   0.0000       5.519176       150.1844 
 230   0.0000       5.528517       150.4386 
 231   0.0000       5.636596       153.3796 
 232   0.0000       5.709041       155.3509 
 233   0.0000       5.729631       155.9112 
 234   0.0000       5.767221       156.9341 
 235   0.0000       5.790177       157.5587 
 236   0.0000       5.821151       158.4016 
 237   0.0000       5.838688       158.8788 
 238   0.0000       5.909172       160.7968 
 239   0.0000       5.962940       162.2598 
 240   0.0000       5.969979       162.4514 
 241   0.0000       6.007850       163.4819 
 242   0.0000       6.196043       168.6029 
 243   0.0000       6.227609       169.4618 
 244   0.0000       6.237125       169.7208 
 245   0.0000       6.261066       170.3723 
 246   0.0000       6.270599       170.6317 
 247   0.0000       6.312722       171.7779 
 248   0.0000       6.363139       173.1498 
 249   0.0000       6.389069       173.8554 
 250   0.0000       6.431082       174.9986 
 251   0.0000       6.436828       175.1550 
 252   0.0000       6.450006       175.5136 
 253   0.0000       6.475936       176.2192 
 254   0.0000       6.489299       176.5828 
 255   0.0000       6.552173       178.2937 
 256   0.0000       6.924510       188.4255 
 257   0.0000       6.990959       190.2337 
 258   0.0000       7.063093       192.1965 
 259   0.0000       7.063865       192.2175 
 260   0.0000       7.083296       192.7463 
 261   0.0000       7.088721       192.8939 
 262   0.0000       7.164026       194.9430 
 263   0.0000       7.169999       195.1056 
 264   0.0000       7.179596       195.3667 
 265   0.0000       7.203335       196.0127 
 266   0.0000       7.211579       196.2370 
 267   0.0000       7.233740       196.8401 
 268   0.0000       7.342345       199.7954 
 269   0.0000       7.637919       207.8383 
 270   0.0000       7.737110       210.5375 
 271   0.0000       7.948226       216.2822 
 272   0.0000       7.966352       216.7755 
 273   0.0000       8.138869       221.4699 
 274   0.0000       8.247912       224.4371 
 275   0.0000       8.485739       230.9087 
 276   0.0000       8.777306       238.8426 
 277   0.0000       8.889816       241.9042 
 278   0.0000       8.967440       244.0164 
 279   0.0000       9.211398       250.6549 
 280   0.0000       9.277284       252.4477 
 281   0.0000       9.441013       256.9030 
 282   0.0000       9.526762       259.2364 
 283   0.0000       9.648419       262.5468 
 284   0.0000       9.655081       262.7281 
 285   0.0000      10.307723       280.4874 
 286   0.0000      10.481555       285.2176 
 287   0.0000      10.774779       293.1966 
 288   0.0000      10.966545       298.4149 
 289   0.0000      11.569484       314.8217 
 290   0.0000      11.572129       314.8936 
 291   0.0000      11.616488       316.1007 
 292   0.0000      11.658989       317.2572 
 293   0.0000      11.744704       319.5896 
 294   0.0000      11.753636       319.8327 
 295   0.0000      11.753712       319.8348 
 296   0.0000      11.794715       320.9505 
 297   0.0000      11.804732       321.2231 
 298   0.0000      11.855436       322.6028 
 299   0.0000      11.912912       324.1668 
 300   0.0000      12.072729       328.5157 
 301   0.0000      12.084510       328.8362 
 302   0.0000      12.134641       330.2004 
 303   0.0000      12.275661       334.0377 
 304   0.0000      12.304456       334.8213 
 305   0.0000      12.311826       335.0218 
 306   0.0000      12.535518       341.1088 
 307   0.0000      12.539571       341.2191 
 308   0.0000      12.542541       341.2999 
 309   0.0000      12.573373       342.1389 
 310   0.0000      12.605460       343.0120 
 311   0.0000      12.627616       343.6149 
 312   0.0000      12.635867       343.8394 
 313   0.0000      12.644586       344.0767 
 314   0.0000      12.644910       344.0855 
 315   0.0000      12.645875       344.1117 
 316   0.0000      12.646200       344.1206 
 317   0.0000      12.651725       344.2709 
 318   0.0000      12.673335       344.8590 
 319   0.0000      12.716709       346.0392 
 320   0.0000      12.795470       348.1824 
 321   0.0000      12.816563       348.7564 
 322   0.0000      12.859291       349.9191 
 323   0.0000      12.901747       351.0744 
 324   0.0000      12.943168       352.2015 
 325   0.0000      12.959874       352.6561 
 326   0.0000      12.990518       353.4900 
 327   0.0000      13.014398       354.1398 
 328   0.0000      13.027077       354.4848 
 329   0.0000      13.510134       367.6294 
 330   0.0000      13.622030       370.6743 
 331   0.0000      13.763324       374.5191 
 332   0.0000      13.818551       376.0219 
 333   0.0000      13.933518       379.1503 
 334   0.0000      13.933785       379.1576 
 335   0.0000      14.028661       381.7393 
 336   0.0000      14.055422       382.4675 
 337   0.0000      14.084550       383.2601 
 338   0.0000      14.235853       387.3772 
 339   0.0000      14.278045       388.5253 
 340   0.0000      14.319390       389.6504 
 341   0.0000      14.495593       394.4451 
 342   0.0000      14.519830       395.1047 
 343   0.0000      14.556010       396.0892 
 344   0.0000      14.619453       397.8155 
 345   0.0000      14.823263       403.3615 
 346   0.0000      15.019712       408.7071 
 347   0.0000      15.029262       408.9670 
 348   0.0000      15.031485       409.0275 
 349   0.0000      15.058344       409.7584 
 350   0.0000      15.089609       410.6091 
 351   0.0000      15.190713       413.3603 
 352   0.0000      15.221095       414.1870 
 353   0.0000      15.263722       415.3470 
 354   0.0000      15.337704       417.3601 
 355   0.0000      15.568031       423.6277 
 356   0.0000      15.663126       426.2153 
 357   0.0000      16.316912       444.0058 
 358   0.0000      16.328726       444.3272 
 359   0.0000      16.347814       444.8466 
 360   0.0000      16.398184       446.2173 
 361   0.0000      17.104819       465.4458 
 362   0.0000      17.271875       469.9916 
 363   0.0000      17.379225       472.9127 
 364   0.0000      17.666701       480.7354 
 365   0.0000      17.916212       487.5249 
 366   0.0000      18.061206       491.4704 
 367   0.0000      18.133039       493.4251 
 368   0.0000      18.354433       499.4495 
 369   0.0000      18.604364       506.2505 
 370   0.0000      19.343394       526.3605 
 371   0.0000      19.882981       541.0434 
 372   0.0000      20.061159       545.8919 
 373   0.0000      20.065557       546.0116 
 374   0.0000      20.066037       546.0246 
 375   0.0000      20.070592       546.1486 
 376   0.0000      20.092649       546.7488 
 377   0.0000      20.126900       547.6808 
 378   0.0000      20.132938       547.8451 
 379   0.0000      20.145242       548.1799 
 380   0.0000      20.545142       559.0617 
 381   0.0000      20.565456       559.6145 
 382   0.0000      20.584775       560.1402 
 383   0.0000      20.714892       563.6809 
 384   0.0000      21.567392       586.8786 
 385   0.0000      21.588358       587.4491 
 386   0.0000      21.632339       588.6459 
 387   0.0000      21.931442       596.7849 
 388   0.0000      22.280916       606.2945 
 389   0.0000      22.282631       606.3412 
 390   0.0000      23.163754       630.3178 
 391   0.0000      23.309503       634.2838 
 392   0.0000      23.399336       636.7283 
 393   0.0000      24.319911       661.7784 
 394   0.0000      25.093588       682.8312 
 395   0.0000      29.953507       815.0764 
 396   0.0000      30.264087       823.5277 
 397   0.0000      30.372569       826.4796 
 398   0.0000      30.398520       827.1858 
 399   0.0000      30.414965       827.6333 
 400   0.0000      30.527516       830.6959 
 401   0.0000      30.529105       830.7392 
 402   0.0000      30.608116       832.8892 
 403   0.0000      30.657277       834.2269 
 404   0.0000      31.524375       857.8218 
 405   0.0000      31.535936       858.1365 
 406   0.0000      31.809000       865.5669 
 407   0.0000      33.240995       904.5335 
 408   0.0000      33.452739       910.2953 
 409   0.0000      41.488585      1128.9618 
 410   0.0000      41.490006      1129.0005 
 411   0.0000      41.498150      1129.2221 
 412   0.0000      41.701418      1134.7533 
 413   0.0000      41.812958      1137.7884 
 414   0.0000      42.027647      1143.6304 
 415   0.0000      43.595109      1186.2832 
 416   0.0000      43.648503      1187.7361 
 417   0.0000      66.503410      1809.6498 
 418   0.0000      66.563939      1811.2969 
 419   0.0000      66.615802      1812.7081 
 420   0.0000      67.047350      1824.4512 
 421   0.0000      67.640602      1840.5944 
 422   0.0000      91.195860      2481.5655 
 423   0.0000      91.268045      2483.5298 
 424   0.0000      91.286280      2484.0260 
 425   0.0000      91.297039      2484.3187 
 426   0.0000      91.359390      2486.0154 
 427   0.0000      91.369734      2486.2969 
 428   0.0000      91.425402      2487.8117 
 429   0.0000      91.440512      2488.2228 
 430   0.0000      92.105268      2506.3118 
 431   0.0000      92.154850      2507.6610 
 432   0.0000     143.066996      3893.0509 
 433   0.0000     201.647140      5487.0976 
 434   0.0000     201.974074      5495.9940 

                    ********************************
                    * MULLIKEN POPULATION ANALYSIS *
                    ********************************

--------------------------------------------
MULLIKEN ATOMIC CHARGES AND SPIN POPULATIONS
--------------------------------------------
   0 O :    0.176246   -0.000000
   1 F :   -0.088121    0.000000
   2 F :   -0.088125    0.000000
Sum of atomic charges         :   -0.0000000
Sum of atomic spin populations:   -0.0000000

-----------------------------------------------------
MULLIKEN REDUCED ORBITAL CHARGES AND SPIN POPULATIONS
-----------------------------------------------------
CHARGE
  0 O s       :     3.917027  s :     3.917027
      pz      :     1.023678  p :     3.803703
      px      :     1.964156
      py      :     0.815869
      dz2     :     0.012727  d :     0.083888
      dxz     :     0.011004
      dyz     :     0.029702
      dx2y2   :     0.014288
      dxy     :     0.016166
      f0      :     0.001221  f :     0.016730
      f+1     :     0.000038
      f-1     :     0.005630
      f+2     :     0.002645
      f-2     :     0.003166
      f+3     :     0.002266
      f-3     :     0.001764
      g0      :     0.000144  g :     0.002257
      g+1     :     0.000019
      g-1     :     0.000770
      g+2     :     0.000367
      g-2     :    -0.000030
      g+3     :     0.000266
      g-3     :     0.000422
      g+4     :     0.000150
      g-4     :     0.000149
      h0      :    -0.000026  h :     0.000149
      h+1     :     0.000003
      h-1     :     0.000144
      h+2     :     0.000003
      h-2     :    -0.000012
      h+3     :    -0.000074
      h-3     :    -0.000034
      h+4     :     0.000018
      h-4     :     0.000081
      h+5     :     0.000103
      h-5     :    -0.000056
  1 F s       :     3.966212  s :     3.966212
      pz      :     1.649789  p :     5.086591
      px      :     1.982445
      py      :     1.454357
      dz2     :     0.003518  d :     0.034028
      dxz     :     0.006512
      dyz     :     0.008756
      dx2y2   :     0.005520
      dxy     :     0.009722
      f0      :    -0.000646  f :     0.003017
      f+1     :     0.000177
      f-1     :     0.000202
      f+2     :     0.000996
      f-2     :     0.001078
      f+3     :     0.001341
      f-3     :    -0.000131
      g0      :    -0.000118  g :    -0.001408
      g+1     :    -0.000000
      g-1     :    -0.000792
      g+2     :    -0.000322
      g-2     :    -0.000149
      g+3     :    -0.000035
      g-3     :     0.000163
      g+4     :    -0.000389
      g-4     :     0.000235
      h0      :    -0.000056  h :    -0.000320
      h+1     :    -0.000010
      h-1     :    -0.000047
      h+2     :    -0.000105
      h-2     :    -0.000006
      h+3     :    -0.000014
      h-3     :    -0.000057
      h+4     :     0.000031
      h-4     :     0.000002
      h+5     :     0.000052
      h-5     :    -0.000111
  2 F s       :     3.966218  s :     3.966218
      pz      :     1.649789  p :     5.086590
      px      :     1.982445
      py      :     1.454356
      dz2     :     0.003518  d :     0.034028
      dxz     :     0.006512
      dyz     :     0.008756
      dx2y2   :     0.005520
      dxy     :     0.009722
      f0      :    -0.000646  f :     0.003017
      f+1     :     0.000177
      f-1     :     0.000202
      f+2     :     0.000996
      f-2     :     0.001078
      f+3     :     0.001341
      f-3     :    -0.000131
      g0      :    -0.000118  g :    -0.001408
      g+1     :    -0.000000
      g-1     :    -0.000792
      g+2     :    -0.000322
      g-2     :    -0.000149
      g+3     :    -0.000035
      g-3     :     0.000163
      g+4     :    -0.000389
      g-4     :     0.000235
      h0      :    -0.000056  h :    -0.000320
      h+1     :    -0.000010
      h-1     :    -0.000047
      h+2     :    -0.000105
      h-2     :    -0.000006
      h+3     :    -0.000014
      h-3     :    -0.000057
      h+4     :     0.000031
      h-4     :     0.000002
      h+5     :     0.000052
      h-5     :    -0.000111

SPIN
  0 O s       :    -0.000000  s :    -0.000000
      pz      :    -0.000000  p :     0.000000
      px      :    -0.000000
      py      :     0.000000
      dz2     :     0.000000  d :     0.000000
      dxz     :    -0.000000
      dyz     :     0.000000
      dx2y2   :    -0.000000
      dxy     :     0.000000
      f0      :    -0.000000  f :    -0.000000
      f+1     :    -0.000000
      f-1     :     0.000000
      f+2     :    -0.000000
      f-2     :     0.000000
      f+3     :    -0.000000
      f-3     :    -0.000000
      g0      :    -0.000000  g :    -0.000000
      g+1     :     0.000000
      g-1     :    -0.000000
      g+2     :    -0.000000
      g-2     :    -0.000000
      g+3     :     0.000000
      g-3     :    -0.000000
      g+4     :     0.000000
      g-4     :     0.000000
      h0      :    -0.000000  h :    -0.000000
      h+1     :     0.000000
      h-1     :    -0.000000
      h+2     :     0.000000
      h-2     :    -0.000000
      h+3     :     0.000000
      h-3     :    -0.000000
      h+4     :    -0.000000
      h-4     :     0.000000
      h+5     :     0.000000
      h-5     :    -0.000000
  1 F s       :     0.000000  s :     0.000000
      pz      :     0.000000  p :     0.000000
      px      :     0.000000
      py      :     0.000000
      dz2     :     0.000000  d :     0.000000
      dxz     :     0.000000
      dyz     :     0.000000
      dx2y2   :     0.000000
      dxy     :     0.000000
      f0      :    -0.000000  f :    -0.000000
      f+1     :     0.000000
      f-1     :     0.000000
      f+2     :    -0.000000
      f-2     :     0.000000
      f+3     :     0.000000
      f-3     :    -0.000000
      g0      :     0.000000  g :    -0.000000
      g+1     :     0.000000
      g-1     :     0.000000
      g+2     :     0.000000
      g-2     :     0.000000
      g+3     :     0.000000
      g-3     :    -0.000000
      g+4     :    -0.000000
      g-4     :     0.000000
      h0      :     0.000000  h :    -0.000000
      h+1     :     0.000000
      h-1     :     0.000000
      h+2     :     0.000000
      h-2     :     0.000000
      h+3     :     0.000000
      h-3     :     0.000000
      h+4     :    -0.000000
      h-4     :     0.000000
      h+5     :    -0.000000
      h-5     :    -0.000000
  2 F s       :     0.000000  s :     0.000000
      pz      :     0.000000  p :     0.000000
      px      :    -0.000000
      py      :     0.000000
      dz2     :    -0.000000  d :     0.000000
      dxz     :    -0.000000
      dyz     :     0.000000
      dx2y2   :     0.000000
      dxy     :    -0.000000
      f0      :     0.000000  f :    -0.000000
      f+1     :     0.000000
      f-1     :     0.000000
      f+2     :    -0.000000
      f-2     :    -0.000000
      f+3     :    -0.000000
      f-3     :     0.000000
      g0      :     0.000000  g :     0.000000
      g+1     :    -0.000000
      g-1     :    -0.000000
      g+2     :     0.000000
      g-2     :     0.000000
      g+3     :    -0.000000
      g-3     :    -0.000000
      g+4     :     0.000000
      g-4     :     0.000000
      h0      :     0.000000  h :     0.000000
      h+1     :    -0.000000
      h-1     :     0.000000
      h+2     :     0.000000
      h-2     :     0.000000
      h+3     :     0.000000
      h-3     :     0.000000
      h+4     :    -0.000000
      h-4     :    -0.000000
      h+5     :     0.000000
      h-5     :     0.000000


                     *******************************
                     * LOEWDIN POPULATION ANALYSIS *
                     *******************************

-------------------------------------------
LOEWDIN ATOMIC CHARGES AND SPIN POPULATIONS
-------------------------------------------
   0 O :    0.092945   -0.000000
   1 F :   -0.046473   -0.000000
   2 F :   -0.046473    0.000000

----------------------------------------------------
LOEWDIN REDUCED ORBITAL CHARGES AND SPIN POPULATIONS
----------------------------------------------------
CHARGE
  0 O s       :     3.220008  s :     3.220008
      pz      :     0.994792  p :     3.442362
      px      :     1.583660
      py      :     0.863910
      dz2     :     0.103254  d :     0.650829
      dxz     :     0.064764
      dyz     :     0.242103
      dx2y2   :     0.137877
      dxy     :     0.102832
      f0      :     0.041968  f :     0.387760
      f+1     :     0.005830
      f-1     :     0.117081
      f+2     :     0.084761
      f-2     :     0.064016
      f+3     :     0.038983
      f-3     :     0.035122
      g0      :     0.009952  g :     0.136026
      g+1     :     0.000234
      g-1     :     0.029232
      g+2     :     0.023965
      g-2     :     0.008103
      g+3     :     0.024629
      g-3     :     0.022854
      g+4     :     0.007661
      g-4     :     0.009395
      h0      :     0.005902  h :     0.070070
      h+1     :     0.000688
      h-1     :     0.008405
      h+2     :     0.010987
      h-2     :     0.000194
      h+3     :     0.007932
      h-3     :     0.009004
      h+4     :     0.008144
      h-4     :     0.011599
      h+5     :     0.004381
      h-5     :     0.002833
  1 F s       :     3.459425  s :     3.459425
      pz      :     1.495765  p :     4.674222
      px      :     1.738975
      py      :     1.439481
      dz2     :     0.041404  d :     0.335230
      dxz     :     0.035971
      dyz     :     0.117169
      dx2y2   :     0.074250
      dxy     :     0.066436
      f0      :     0.018929  f :     0.250168
      f+1     :     0.005391
      f-1     :     0.060919
      f+2     :     0.048258
      f-2     :     0.039370
      f+3     :     0.039758
      f-3     :     0.037543
      g0      :     0.015108  g :     0.187561
      g+1     :     0.000119
      g-1     :     0.030361
      g+2     :     0.034308
      g-2     :     0.012389
      g+3     :     0.021537
      g-3     :     0.021739
      g+4     :     0.024031
      g-4     :     0.027967
      h0      :     0.011356  h :     0.139867
      h+1     :     0.000785
      h-1     :     0.012039
      h+2     :     0.021952
      h-2     :     0.000142
      h+3     :     0.014851
      h-3     :     0.018123
      h+4     :     0.012588
      h-4     :     0.010018
      h+5     :     0.022671
      h-5     :     0.015343
  2 F s       :     3.459425  s :     3.459425
      pz      :     1.495765  p :     4.674222
      px      :     1.738975
      py      :     1.439481
      dz2     :     0.041404  d :     0.335230
      dxz     :     0.035971
      dyz     :     0.117169
      dx2y2   :     0.074250
      dxy     :     0.066436
      f0      :     0.018929  f :     0.250168
      f+1     :     0.005391
      f-1     :     0.060919
      f+2     :     0.048258
      f-2     :     0.039370
      f+3     :     0.039758
      f-3     :     0.037543
      g0      :     0.015108  g :     0.187561
      g+1     :     0.000119
      g-1     :     0.030361
      g+2     :     0.034308
      g-2     :     0.012389
      g+3     :     0.021537
      g-3     :     0.021739
      g+4     :     0.024031
      g-4     :     0.027967
      h0      :     0.011356  h :     0.139867
      h+1     :     0.000785
      h-1     :     0.012039
      h+2     :     0.021952
      h-2     :     0.000142
      h+3     :     0.014851
      h-3     :     0.018123
      h+4     :     0.012588
      h-4     :     0.010018
      h+5     :     0.022671
      h-5     :     0.015343

SPIN
  0 O s       :    -0.000000  s :    -0.000000
      pz      :    -0.000000  p :    -0.000000
      px      :    -0.000000
      py      :     0.000000
      dz2     :     0.000000  d :     0.000000
      dxz     :    -0.000000
      dyz     :     0.000000
      dx2y2   :    -0.000000
      dxy     :    -0.000000
      f0      :    -0.000000  f :    -0.000000
      f+1     :    -0.000000
      f-1     :    -0.000000
      f+2     :    -0.000000
      f-2     :     0.000000
      f+3     :    -0.000000
      f-3     :    -0.000000
      g0      :     0.000000  g :     0.000000
      g+1     :    -0.000000
      g-1     :    -0.000000
      g+2     :     0.000000
      g-2     :    -0.000000
      g+3     :    -0.000000
      g-3     :     0.000000
      g+4     :    -0.000000
      g-4     :     0.000000
      h0      :    -0.000000  h :     0.000000
      h+1     :     0.000000
      h-1     :     0.000000
      h+2     :    -0.000000
      h-2     :    -0.000000
      h+3     :     0.000000
      h-3     :    -0.000000
      h+4     :     0.000000
      h-4     :     0.000000
      h+5     :     0.000000
      h-5     :     0.000000
  1 F s       :    -0.000000  s :    -0.000000
      pz      :    -0.000000  p :    -0.000000
      px      :    -0.000000
      py      :    -0.000000
      dz2     :    -0.000000  d :     0.000000
      dxz     :     0.000000
      dyz     :     0.000000
      dx2y2   :    -0.000000
      dxy     :     0.000000
      f0      :    -0.000000  f :    -0.000000
      f+1     :     0.000000
      f-1     :     0.000000
      f+2     :    -0.000000
      f-2     :     0.000000
      f+3     :     0.000000
      f-3     :    -0.000000
      g0      :     0.000000  g :     0.000000
      g+1     :    -0.000000
      g-1     :    -0.000000
      g+2     :     0.000000
      g-2     :     0.000000
      g+3     :    -0.000000
      g-3     :     0.000000
      g+4     :     0.000000
      g-4     :    -0.000000
      h0      :    -0.000000  h :    -0.000000
      h+1     :    -0.000000
      h-1     :     0.000000
      h+2     :    -0.000000
      h-2     :     0.000000
      h+3     :    -0.000000
      h-3     :     0.000000
      h+4     :    -0.000000
      h-4     :     0.000000
      h+5     :    -0.000000
      h-5     :     0.000000
  2 F s       :    -0.000000  s :    -0.000000
      pz      :     0.000000  p :     0.000000
      px      :     0.000000
      py      :     0.000000
      dz2     :    -0.000000  d :     0.000000
      dxz     :     0.000000
      dyz     :     0.000000
      dx2y2   :     0.000000
      dxy     :     0.000000
      f0      :    -0.000000  f :    -0.000000
      f+1     :     0.000000
      f-1     :     0.000000
      f+2     :    -0.000000
      f-2     :     0.000000
      f+3     :    -0.000000
      f-3     :    -0.000000
      g0      :     0.000000  g :     0.000000
      g+1     :    -0.000000
      g-1     :    -0.000000
      g+2     :     0.000000
      g-2     :    -0.000000
      g+3     :    -0.000000
      g-3     :     0.000000
      g+4     :    -0.000000
      g-4     :     0.000000
      h0      :    -0.000000  h :    -0.000000
      h+1     :    -0.000000
      h-1     :     0.000000
      h+2     :     0.000000
      h-2     :    -0.000000
      h+3     :     0.000000
      h-3     :    -0.000000
      h+4     :    -0.000000
      h-4     :     0.000000
      h+5     :     0.000000
      h-5     :    -0.000000


                      *****************************
                      * MAYER POPULATION ANALYSIS *
                      *****************************

  NA   - Mulliken gross atomic population
  ZA   - Total nuclear charge
  QA   - Mulliken gross atomic charge
  VA   - Mayer's total valence
  BVA  - Mayer's bonded valence
  FA   - Mayer's free valence

  ATOM       NA         ZA         QA         VA         BVA        FA
  0 O      7.8238     8.0000     0.1762     1.9708     1.9708    -0.0000
  1 F      9.0881     9.0000    -0.0881     1.0699     1.0699    -0.0000
  2 F      9.0881     9.0000    -0.0881     1.0699     1.0699    -0.0000

  Mayer bond orders larger than 0.1
B(  0-O ,  1-F ) :   0.9854 B(  0-O ,  2-F ) :   0.9854 

-------
TIMINGS
-------

Total SCF time: 0 days 1 hours 28 min 59 sec 

Total time                  ....    5339.120 sec
Sum of individual times     ....    5338.123 sec  (100.0%)

Fock matrix formation       ....    5326.086 sec  ( 99.8%)
  XC integration            ....     140.524 sec  (  2.6% of F)
    Basis function eval.    ....       9.849 sec  (  7.0% of XC)
    Density eval.           ....      31.451 sec  ( 22.4% of XC)
    XC-Functional eval.     ....       1.355 sec  (  1.0% of XC)
    XC-Potential eval.      ....      96.859 sec  ( 68.9% of XC)
Diagonalization             ....       2.001 sec  (  0.0%)
Density matrix formation    ....       0.044 sec  (  0.0%)
Population analysis         ....       0.184 sec  (  0.0%)
Initial guess               ....       5.918 sec  (  0.1%)
Orbital Transformation      ....       0.000 sec  (  0.0%)
Orbital Orthonormalization  ....       0.000 sec  (  0.0%)
DIIS solution               ....       1.140 sec  (  0.0%)
Grid generation             ....       2.749 sec  (  0.1%)

-------------------------   --------------------
FINAL SINGLE POINT ENERGY      -274.564577058112
-------------------------   --------------------


                            ***************************************
                            *     ORCA property calculations      *
                            ***************************************

                                    ---------------------
                                    Active property flags
                                    ---------------------
   (+) Dipole Moment
   (+) Polarizability


------------------------------------------------------------------------------
                       ORCA ELECTRIC PROPERTIES CALCULATION
------------------------------------------------------------------------------

Dipole Moment Calculation                       ... on
Quadrupole Moment Calculation                   ... off
Polarizability Calculation                      ... Analytic (CP-SCF)
GBWName                                         ... of2_pbe.gbw
Electron density file                           ... of2_pbe.scfp.tmp
The origin for moment calculation is the CENTER OF MASS  = ( 0.000000,  0.000000 -0.018743)

-------------
DIPOLE MOMENT
-------------
                                X             Y             Z
Electronic contribution:     -0.00000       0.00000      -0.37885
Nuclear contribution   :      0.00000       0.00000       0.48882
                        -----------------------------------------
Total Dipole Moment    :     -0.00000       0.00000       0.10997
                        -----------------------------------------
Magnitude (a.u.)       :      0.10997
Magnitude (Debye)      :      0.27952



--------------------
Rotational spectrum 
--------------------
 
Rotational constants in cm-1:     1.961530     0.366469     0.308780 
Rotational constants in MHz : 58805.203962 10986.452921  9256.989069 

 Dipole components along the rotational axes: 
x,y,z [a.u.] :     0.000000     0.109971    -0.000000 
x,y,z [Debye]:     0.000000     0.279525    -0.000000 

 
Transforming and storing MO dipole integrals   ... done

                ... starting polarizability calculation

Opening the Dipole integral file               ... (of2_pbe.dmo.tmp) done
Reading Dipole-MO integrals                    ... done
Solving CP-SCF equations                       ... 
------------------------------------------------------------------------------
                           ORCA CP-SCF CALCULATION
------------------------------------------------------------------------------

Input orbitals are from        ... of2_pbe.gbw
Input Perturbation             ... of2_pbe.cpv.tmp
Wavefunction output            ... of2_pbe.cpu.tmp
Perturbation mode              ... Real perturbation (singlet)
Solver                         ... POPLE
Max. number of iterations      ... 200
Convergence tolerance          ... 1.000e-06
Integral handling              ... Direct
Number of perturbations        ... 3
Number of operators            ... 2
Orbital ranges used for CP-SCF:
 Operator 0:  Orbitals   0... 12  to  13...434
 Operator 1:  Orbitals   0... 12  to  13...434
DFT calculation                         ... on
Exchange functional (SCF)               ... PBE
Exchange functional (CP-SCF)            ... PBE
   PBE kappa parameter  XKappa (SCF)    ...  0.804000
   PBE kappa parameter  XKappa (CP-SCF) ...  0.804000
   PBE mue parameter   XMuePBE (SCF)    ...  0.219520
   PBE mue parameter   XMuePBE (CP-SCF) ...  0.219520
Correlation functional (SCF)            ... PBE
Correlation functional (CP-SCF)         ... PBE
   PBE beta parameter CBetaPBE (SCF)    ...  0.066725
   PBE beta parameter CBetaPBE (CP-SCF) ...  0.066725
 LDA part of GGA corr.  LDAOpt (SCF)    ... PW91-LDA
 LDA part of GGA corr.  LDAOpt (CP-SCF) ... PW91-LDA
Variables per vector in CP-SCF ... 10972
Number of vectors sought       ... 3
Recalculating density on grid  ... done
Calculating the xc-kernel      ... done
     CP-SCF ITERATION   0: 
     CP-SCF ITERATION   1:      0.149015666721
     CP-SCF ITERATION   2:      0.004133710281
     CP-SCF ITERATION   3:      0.000227572455
     CP-SCF ITERATION   4:      0.000005566978
     CP-SCF ITERATION   5:      0.000000822907
done
Reading CP-SCF coefficients                    ... done
Doing the polarizability tensor   ... done
Cleaning up                                    ... done

-------------------------
THE POLARIZABILITY TENSOR
-------------------------

The raw cartesian tensor (atomic units):
   10.74737     -0.00000      0.00000  
   -0.00000     21.10592      0.00000  
    0.00000      0.00000     14.04093  
diagonalized tensor: 
   10.74737     14.04093     21.10592  

    1.00000      0.00000     -0.00000  
    0.00000     -0.00000      1.00000  
   -0.00000      1.00000      0.00000  

Isotropic polarizability :  15.29807


Timings for individual modules:

Sum of individual times         ...     9392.758 sec (= 156.546 min)
GTO integral calculation        ...        1.898 sec (=   0.032 min)   0.0 %
SCF iterations                  ...     5339.141 sec (=  88.986 min)  56.8 %
Solution of CP-SCF eqns.        ...     4051.719 sec (=  67.529 min)  43.1 %
                             ****ORCA TERMINATED NORMALLY****
TOTAL RUN TIME: 0 days 2 hours 36 minutes 33 seconds 293 msec
