
                                 *****************
                                 * O   R   C   A *
                                 *****************

           --- An Ab Initio, DFT and Semiempirical electronic structure package ---

                  #######################################################
                  #                        -***-                        #
                  #          Department of theory and spectroscopy      #
                  #               Directorship: Frank Neese             #
                  #        Max Planck Institute fuer Kohlenforschung    #
                  #                Kaiser Wilhelm Platz 1               #
                  #                 D-45470 Muelheim/Ruhr               #
                  #                      Germany                        #
                  #                                                     #
                  #                  All rights reserved                #
                  #                        -***-                        #
                  #######################################################


                         Program Version 4.1.2  - RELEASE  -


 With contributions from (in alphabetic order):
   Daniel Aravena         : Magnetic Properties
   Michael Atanasov       : Ab Initio Ligand Field Theory
   Alexander A. Auer      : GIAO ZORA
   Ute Becker             : Parallelization
   Giovanni Bistoni       : ED, Open-shell LED
   Martin Brehm           : Molecular dynamics
   Dmytro Bykov           : SCF Hessian
   Vijay G. Chilkuri      : MRCI spin determinant printing
   Dipayan Datta          : RHF DLPNO-CCSD density
   Achintya Kumar Dutta   : EOM-CC, STEOM-CC
   Dmitry Ganyushin       : Spin-Orbit,Spin-Spin,Magnetic field MRCI
   Miquel Garcia          : C-PCM Hessian
   Yang Guo               : DLPNO-NEVPT2, CIM, IAO-localization
   Andreas Hansen         : Spin unrestricted coupled pair/coupled cluster methods
   Benjamin Helmich-Paris : CASSCF linear response (MC-RPA)
   Lee Huntington         : MR-EOM, pCC
   Robert Izsak           : Overlap fitted RIJCOSX, COSX-SCS-MP3, EOM
   Christian Kollmar      : KDIIS, OOCD, Brueckner-CCSD(T), CCSD density
   Simone Kossmann        : Meta GGA functionals, TD-DFT gradient, OOMP2, MP2 Hessian
   Martin Krupicka        : AUTO-CI
   Lucas Lang             : DCDCAS
   Dagmar Lenk            : GEPOL surface, SMD
   Dimitrios Liakos       : Extrapolation schemes; parallel MDCI
   Dimitrios Manganas     : ROCIS; embedding schemes
   Dimitrios Pantazis     : SARC Basis sets
   Taras Petrenko         : DFT Hessian,TD-DFT gradient, ASA, ECA, R-Raman, ABS, FL, XAS/XES, NRVS
   Peter Pinski           : DLPNO-MP2, DLPNO-MP2 Gradient
   Christoph Reimann      : Effective Core Potentials
   Marius Retegan         : Local ZFS, SOC
   Christoph Riplinger    : Optimizer, TS searches, QM/MM, DLPNO-CCSD(T), (RO)-DLPNO pert. Triples
   Tobias Risthaus        : Range-separated hybrids, TD-DFT gradient, RPA, STAB
   Michael Roemelt        : Restricted open shell CIS
   Masaaki Saitow         : Open-shell DLPNO
   Barbara Sandhoefer     : DKH picture change effects
   Avijit Sen             : IP-ROCIS
   Kantharuban Sivalingam : CASSCF convergence, NEVPT2, FIC-MRCI
   Bernardo de Souza      : ESD, SOC TD-DFT
   Georgi Stoychev        : AutoAux, RI-MP2 NMR
   Willem Van den Heuvel  : Paramagnetic NMR
   Boris Wezisla          : Elementary symmetry handling
   Frank Wennmohs         : Technical directorship


 We gratefully acknowledge several colleagues who have allowed us to
 interface, adapt or use parts of their codes:
   Stefan Grimme, W. Hujo, H. Kruse,             : VdW corrections, initial TS optimization,
                  C. Bannwarth                     DFT functionals, gCP, sTDA/sTD-DF
   Ed Valeev                                     : LibInt (2-el integral package), F12 methods
   Garnet Chan, S. Sharma, J. Yang, R. Olivares  : DMRG
   Ulf Ekstrom                                   : XCFun DFT Library
   Mihaly Kallay                                 : mrcc  (arbitrary order and MRCC methods)
   Andreas Klamt, Michael Diedenhofen            : otool_cosmo (COSMO solvation model)
   Jiri Pittner, Ondrej Demel                    : Mk-CCSD
   Frank Weinhold                                : gennbo (NPA and NBO analysis)
   Christopher J. Cramer and Donald G. Truhlar   : smd solvation model
   Lars Goerigk                                  : TD-DFT with DH, B97 family of functionals
   V. Asgeirsson, H. Jonsson                     : NEB implementation
   FAccTs GmbH                                   : IRC, NEB, NEB-TS, Multilevel


 Your calculation uses the libint2 library for the computation of 2-el integrals
 For citations please refer to: http://libint.valeyev.net

 This ORCA versions uses:
   CBLAS   interface :  Fast vector & matrix operations
   LAPACKE interface :  Fast linear algebra routines
   SCALAPACK package :  Parallel linear algebra routines


----- Orbital basis set information -----
Your calculation utilizes the basis: aug-pc-4
   H, C-F              : F. Jensen, J. Chem. Phys. 115, 9113 (2001).
                         F. Jensen, J. Chem. Phys. 116, 7372 (2002).
                         F. Jensen, J. Chem. Phys. 117, 9234 (2002).
   Si-Cl               : F. Jensen, T. Helgaker, J. Chem. Phys. 121, 3463 (2004).
   He-B, Ne-Mg, Al, Ar : F. Jensen, J. Phys. Chem. A 111, 11198 (2007).
   K, Ca, Ga-Kr        : F. Jensen, J. Chem. Phys. 136, 094110 (2012).
   Sc-Zn               : F. Jensen, J. Chem. Phys. 138, 014107 (2013).

================================================================================
                                        WARNINGS
                       Please study these warnings very carefully!
================================================================================


INFO   : the flag for use of LIBINT has been found!

================================================================================
                                       INPUT FILE
================================================================================
NAME = of_pbe.inp
|  1> !uks pbe nori aug-pc-4 grid7 nofinalgrid verytightscf
|  2> 
|  3> %maxcore 1500
|  4> 
|  5> %pal nprocs 1 end
|  6> 
|  7> %scf
|  8> 	maxiter 200
|  9> end
| 10> %elprop
| 11> 	dipole true
| 12> 	 polar 1
| 13> 	 maxiter 200
| 14> end
| 15> 
| 16> * xyz 0 2
| 17> O 0.0000 0.0000 0.0000
| 18> F 0.0000 0.0000 1.3541
| 19> *
| 20> 
| 21>                          ****END OF INPUT****
================================================================================

                       ****************************
                       * Single Point Calculation *
                       ****************************

---------------------------------
CARTESIAN COORDINATES (ANGSTROEM)
---------------------------------
  O      0.000000    0.000000    0.000000
  F      0.000000    0.000000    1.354100

----------------------------
CARTESIAN COORDINATES (A.U.)
----------------------------
  NO LB      ZA    FRAG     MASS         X           Y           Z
   0 O     8.0000    0    15.999    0.000000    0.000000    0.000000
   1 F     9.0000    0    18.998    0.000000    0.000000    2.558878

--------------------------------
INTERNAL COORDINATES (ANGSTROEM)
--------------------------------
 O      0   0   0     0.000000000000     0.00000000     0.00000000
 F      1   0   0     1.354100000000     0.00000000     0.00000000

---------------------------
INTERNAL COORDINATES (A.U.)
---------------------------
 O      0   0   0     0.000000000000     0.00000000     0.00000000
 F      1   0   0     2.558878157943     0.00000000     0.00000000

---------------------
BASIS SET INFORMATION
---------------------
There are 2 groups of distinct atoms

 Group   1 Type O   : 27s12p7d4f3g2h contracted to 9s8p7d4f3g2h pattern {1191111111/51111111/1111111/1111/111/11}
 Group   2 Type F   : 27s12p7d4f3g2h contracted to 9s8p7d4f3g2h pattern {1191111111/51111111/1111111/1111/111/11}

Atom   0O    basis set group =>   1
Atom   1F    basis set group =>   2
------------------------------------------------------------------------------
                           ORCA GTO INTEGRAL CALCULATION
------------------------------------------------------------------------------

                         BASIS SET STATISTICS AND STARTUP INFO

 # of primitive gaussian shells          ...  110
 # of primitive gaussian functions       ...  350
 # of contracted shells                  ...   66
 # of contracted basis functions         ...  290
 Highest angular momentum                ...    5
 Maximum contraction depth               ...   11
 Integral package used                   ... LIBINT
 Integral threshhold            Thresh   ...  1.000e-12
 Primitive cut-off              TCut     ...  1.000e-14


------------------------------ INTEGRAL EVALUATION ----------------------------


 * One electron integrals 
 Pre-screening matrix                    ... done
 Shell pair data                         ... done (   0.001 sec)

-------------------------------------------------------------------------------
                                 ORCA SCF
-------------------------------------------------------------------------------

------------
SCF SETTINGS
------------
Hamiltonian:
 Density Functional     Method          .... DFT(GTOs)
 Exchange Functional    Exchange        .... PBE
   PBE kappa parameter   XKappa         ....  0.804000
   PBE mue parameter    XMuePBE         ....  0.219520
 Correlation Functional Correlation     .... PBE
   PBE beta parameter  CBetaPBE         ....  0.066725
 LDA part of GGA corr.  LDAOpt          .... PW91-LDA
 Gradients option       PostSCFGGA      .... off
   Density functional embedding theory  .... OFF
   NL short-range parameter             ....  6.400000


General Settings:
 Integral files         IntName         .... of_pbe
 Hartree-Fock type      HFTyp           .... UHF
 Total Charge           Charge          ....    0
 Multiplicity           Mult            ....    2
 Number of Electrons    NEL             ....   17
 Basis Dimension        Dim             ....  290
 Nuclear Repulsion      ENuc            ....     28.1373303283 Eh

Convergence Acceleration:
 DIIS                   CNVDIIS         .... on
   Start iteration      DIISMaxIt       ....    12
   Startup error        DIISStart       ....  0.200000
   # of expansion vecs  DIISMaxEq       ....     5
   Bias factor          DIISBfac        ....   1.050
   Max. coefficient     DIISMaxC        ....  10.000
 Newton-Raphson         CNVNR           .... off
 SOSCF                  CNVSOSCF        .... off
 Level Shifting         CNVShift        .... on
   Level shift para.    LevelShift      ....    0.2500
   Turn off err/grad.   ShiftErr        ....    0.0010
 Zerner damping         CNVZerner       .... off
 Static damping         CNVDamp         .... on
   Fraction old density DampFac         ....    0.7000
   Max. Damping (<1)    DampMax         ....    0.9800
   Min. Damping (>=0)   DampMin         ....    0.0000
   Turn off err/grad.   DampErr         ....    0.1000
 Fernandez-Rico         CNVRico         .... off

SCF Procedure:
 Maximum # iterations   MaxIter         ....   200
 SCF integral mode      SCFMode         .... Direct
   Integral package                     .... LIBINT
 Reset frequency        DirectResetFreq ....    20
 Integral Threshold     Thresh          ....  1.000e-12 Eh
 Primitive CutOff       TCut            ....  1.000e-14 Eh

Convergence Tolerance:
 Convergence Check Mode ConvCheckMode   .... Total+1el-Energy
 Convergence forced     ConvForced      .... 0
 Energy Change          TolE            ....  1.000e-09 Eh
 1-El. energy change                    ....  1.000e-06 Eh
 DIIS Error             TolErr          ....  1.000e-08


Diagonalization of the overlap matrix:
Smallest eigenvalue                        ... 1.089e-05
Time for diagonalization                   ...    0.014 sec
Threshold for overlap eigenvalues          ... 1.000e-08
Number of eigenvalues below threshold      ... 0
Time for construction of square roots      ...    0.012 sec
Total time needed                          ...    0.026 sec

-------------------
DFT GRID GENERATION
-------------------

General Integration Accuracy     IntAcc      ...  5.670
Radial Grid Type                 RadialGrid  ... Gauss-Chebyshev
Angular Grid (max. acc.)         AngularGrid ... Lebedev-770
Angular grid pruning method      GridPruning ... 3 (G Style)
Weight generation scheme         WeightScheme... Becke
Basis function cutoff            BFCut       ...    1.0000e-12
Integration weight cutoff        WCut        ...    1.0000e-14
Grids for H and He will be reduced by one unit

# of grid points (after initial pruning)     ...  50500 (   0.0 sec)
# of grid points (after weights+screening)   ...  50338 (   0.0 sec)
nearest neighbour list constructed           ...    0.0 sec
Grid point re-assignment to atoms done       ...    0.0 sec
Grid point division into batches done        ...    1.1 sec
Reduced shell lists constructed in    1.5 sec

Total number of grid points                  ...    50338
Total number of batches                      ...      787
Average number of points per batch           ...       63
Average number of grid points per atom       ...    25169
Average number of shells per batch           ...    47.99 (72.71%)
Average number of basis functions per batch  ...   221.08 (76.24%)
Average number of large shells per batch     ...    43.24 (90.10%)
Average number of large basis fcns per batch ...   200.11 (90.51%)
Maximum spatial batch extension              ...  13.02, 13.24, 18.67 au
Average spatial batch extension              ...   2.33,  2.31,  2.16 au

Time for grid setup =    1.582 sec

------------------------------
INITIAL GUESS: MODEL POTENTIAL
------------------------------
Loading Hartree-Fock densities                     ... done
Calculating cut-offs                               ... done
Setting up the integral package                    ... done
Initializing the effective Hamiltonian             ... done
Starting the Coulomb interaction                   ... done (   0.0 sec)
Reading the grid                                   ... done
Mapping shells                                     ... done
Starting the XC term evaluation                    ... done (   2.0 sec)
  promolecular density results
     # of electrons  =     17.000000074
     EX              =    -18.039075166
     EC              =     -0.572799750
     EX+EC           =    -18.611874915
Transforming the Hamiltonian                       ... done (   0.0 sec)
Diagonalizing the Hamiltonian                      ... done (   0.0 sec)
Back transforming the eigenvectors                 ... done (   0.0 sec)
Now organizing SCF variables                       ... done
                      ------------------
                      INITIAL GUESS DONE (   3.7 sec)
                      ------------------
--------------
SCF ITERATIONS
--------------
ITER       Energy         Delta-E        Max-DP      RMS-DP      [F,P]     Damp
               ***  Starting incremental Fock matrix formation  ***
  0   -174.7895586083   0.000000000000 0.00375841  0.00006101  0.0881042 0.7000
  1   -174.7967209579  -0.007162349640 0.00255581  0.00003676  0.0405764 0.7000
                               ***Turning on DIIS***
  2   -174.7992640484  -0.002543090473 0.00715056  0.00006988  0.0259461 0.0000
  3   -174.8055975650  -0.006333516565 0.00176225  0.00002231  0.0145593 0.0000
  4   -174.8060640505  -0.000466485567 0.00051828  0.00000663  0.0031171 0.0000
  5   -174.8060794959  -0.000015445403 0.00023729  0.00000329  0.0049220 0.0000
  6   -174.8060969812  -0.000017485231 0.00016523  0.00000268  0.0009286 0.0000
  7   -174.8060998907  -0.000002909572 0.00004946  0.00000058  0.0003292 0.0000
  8   -174.8061000325  -0.000000141742 0.00001700  0.00000026  0.0002119 0.0000
  9   -174.8061000824  -0.000000049966 0.00000993  0.00000010  0.0000659 0.0000
 10   -174.8061000887  -0.000000006237 0.00000226  0.00000002  0.0000176 0.0000
 11   -174.8061000892  -0.000000000493 0.00000144  0.00000001  0.0000089 0.0000
 12   -174.8061000893  -0.000000000168 0.00000050  0.00000001  0.0000006 0.0000
                 **** Energy Check signals convergence ****

               *****************************************************
               *                     SUCCESS                       *
               *           SCF CONVERGED AFTER  13 CYCLES          *
               *****************************************************


----------------
TOTAL SCF ENERGY
----------------

Total Energy       :         -174.80610009 Eh           -4756.71581 eV

Components:
Nuclear Repulsion  :           28.13733033 Eh             765.65568 eV
Electronic Energy  :         -202.94343042 Eh           -5522.37149 eV
One Electron Energy:         -298.07878094 Eh           -8111.13599 eV
Two Electron Energy:           95.13535052 Eh            2588.76450 eV

Virial components:
Potential Energy   :         -349.13451099 Eh           -9500.43304 eV
Kinetic Energy     :          174.32841090 Eh            4743.71723 eV
Virial Ratio       :            2.00274017


DFT components:
N(Alpha)           :        8.999999887770 electrons
N(Beta)            :        7.999999890528 electrons
N(Total)           :       16.999999778297 electrons
E(X)               :      -18.130262704137 Eh       
E(C)               :       -0.566265588463 Eh       
E(XC)              :      -18.696528292600 Eh       
DFET-embed. en.    :        0.000000000000 Eh       

---------------
SCF CONVERGENCE
---------------

  Last Energy change         ...   -3.0212e-11  Tolerance :   1.0000e-09
  Last MAX-Density change    ...    6.5413e-07  Tolerance :   1.0000e-08
  Last RMS-Density change    ...    6.7115e-09  Tolerance :   1.0000e-09
  Last DIIS Error            ...    2.7130e-07  Tolerance :   1.0000e-08

             **** THE GBW FILE WAS UPDATED (of_pbe.gbw) ****
             **** DENSITY FILE WAS UPDATED (of_pbe.scfp.tmp) ****
             **** ENERGY FILE WAS UPDATED (of_pbe.en.tmp) ****
----------------------
UHF SPIN CONTAMINATION
----------------------

Warning: in a DFT calculation there is little theoretical justification to 
         calculate <S**2> as in Hartree-Fock theory. We will do it anyways
         but you should keep in mind that the values have only limited relevance

Expectation value of <S**2>     :     0.752198
Ideal value S*(S+1) for S=0.5   :     0.750000
Deviation                       :     0.002198

----------------
ORBITAL ENERGIES
----------------
                 SPIN UP ORBITALS
  NO   OCC          E(Eh)            E(eV) 
   0   1.0000     -24.367816      -663.0820 
   1   1.0000     -18.907771      -514.5066 
   2   1.0000      -1.230067       -33.4718 
   3   1.0000      -0.871404       -23.7121 
   4   1.0000      -0.530067       -14.4239 
   5   1.0000      -0.497949       -13.5499 
   6   1.0000      -0.464943       -12.6517 
   7   1.0000      -0.333220        -9.0674 
   8   1.0000      -0.279130        -7.5955 
   9   0.0000      -0.097744        -2.6598 
  10   0.0000       0.001660         0.0452 
  11   0.0000       0.030774         0.8374 
  12   0.0000       0.032356         0.8804 
  13   0.0000       0.034707         0.9444 
  14   0.0000       0.070903         1.9294 
  15   0.0000       0.076102         2.0708 
  16   0.0000       0.076627         2.0851 
  17   0.0000       0.139784         3.8037 
  18   0.0000       0.144647         3.9360 
  19   0.0000       0.144689         3.9372 
  20   0.0000       0.152830         4.1587 
  21   0.0000       0.153071         4.1653 
  22   0.0000       0.169145         4.6027 
  23   0.0000       0.203512         5.5378 
  24   0.0000       0.210712         5.7338 
  25   0.0000       0.212104         5.7716 
  26   0.0000       0.228225         6.2103 
  27   0.0000       0.248699         6.7675 
  28   0.0000       0.251113         6.8331 
  29   0.0000       0.277387         7.5481 
  30   0.0000       0.277461         7.5501 
  31   0.0000       0.321277         8.7424 
  32   0.0000       0.321283         8.7426 
  33   0.0000       0.345900         9.4124 
  34   0.0000       0.367075         9.9886 
  35   0.0000       0.372198        10.1280 
  36   0.0000       0.407892        11.0993 
  37   0.0000       0.407954        11.1010 
  38   0.0000       0.432455        11.7677 
  39   0.0000       0.437486        11.9046 
  40   0.0000       0.469153        12.7663 
  41   0.0000       0.498317        13.5599 
  42   0.0000       0.503909        13.7121 
  43   0.0000       0.505318        13.7504 
  44   0.0000       0.538624        14.6567 
  45   0.0000       0.541363        14.7312 
  46   0.0000       0.542720        14.7682 
  47   0.0000       0.543088        14.7782 
  48   0.0000       0.546737        14.8775 
  49   0.0000       0.567245        15.4355 
  50   0.0000       0.567246        15.4356 
  51   0.0000       0.582790        15.8585 
  52   0.0000       0.630075        17.1452 
  53   0.0000       0.631201        17.1758 
  54   0.0000       0.640423        17.4268 
  55   0.0000       0.641290        17.4504 
  56   0.0000       0.642750        17.4901 
  57   0.0000       0.689145        18.7526 
  58   0.0000       0.689148        18.7527 
  59   0.0000       0.719318        19.5736 
  60   0.0000       0.726511        19.7694 
  61   0.0000       0.754324        20.5262 
  62   0.0000       0.766054        20.8454 
  63   0.0000       0.766172        20.8486 
  64   0.0000       0.804949        21.9038 
  65   0.0000       0.819042        22.2873 
  66   0.0000       0.852237        23.1905 
  67   0.0000       0.852237        23.1906 
  68   0.0000       0.883113        24.0307 
  69   0.0000       0.883119        24.0309 
  70   0.0000       0.897017        24.4091 
  71   0.0000       0.897017        24.4091 
  72   0.0000       0.914345        24.8806 
  73   0.0000       0.922439        25.1008 
  74   0.0000       0.949363        25.8335 
  75   0.0000       0.958702        26.0876 
  76   0.0000       0.961032        26.1510 
  77   0.0000       0.995518        27.0894 
  78   0.0000       0.998894        27.1813 
  79   0.0000       1.006285        27.3824 
  80   0.0000       1.027998        27.9733 
  81   0.0000       1.028671        27.9916 
  82   0.0000       1.039781        28.2939 
  83   0.0000       1.039785        28.2940 
  84   0.0000       1.043316        28.3901 
  85   0.0000       1.043317        28.3901 
  86   0.0000       1.139695        31.0127 
  87   0.0000       1.196516        32.5589 
  88   0.0000       1.196644        32.5623 
  89   0.0000       1.200103        32.6565 
  90   0.0000       1.203726        32.7551 
  91   0.0000       1.232461        33.5370 
  92   0.0000       1.264265        34.4024 
  93   0.0000       1.264820        34.4175 
  94   0.0000       1.264820        34.4175 
  95   0.0000       1.275636        34.7118 
  96   0.0000       1.331476        36.2313 
  97   0.0000       1.359113        36.9833 
  98   0.0000       1.359113        36.9833 
  99   0.0000       1.368059        37.2268 
 100   0.0000       1.368060        37.2268 
 101   0.0000       1.417125        38.5619 
 102   0.0000       1.417256        38.5655 
 103   0.0000       1.447211        39.3806 
 104   0.0000       1.450640        39.4739 
 105   0.0000       1.453380        39.5485 
 106   0.0000       1.506062        40.9820 
 107   0.0000       1.663901        45.2771 
 108   0.0000       1.664138        45.2835 
 109   0.0000       1.723920        46.9102 
 110   0.0000       1.746892        47.5353 
 111   0.0000       1.790028        48.7091 
 112   0.0000       1.814025        49.3621 
 113   0.0000       1.818672        49.4886 
 114   0.0000       1.948492        53.0212 
 115   0.0000       2.067857        56.2692 
 116   0.0000       2.068453        56.2855 
 117   0.0000       2.168687        59.0130 
 118   0.0000       2.168700        59.0133 
 119   0.0000       2.174361        59.1674 
 120   0.0000       2.177163        59.2436 
 121   0.0000       2.178383        59.2768 
 122   0.0000       2.186892        59.5083 
 123   0.0000       2.246657        61.1347 
 124   0.0000       2.303283        62.6755 
 125   0.0000       2.303287        62.6756 
 126   0.0000       2.421173        65.8835 
 127   0.0000       2.442004        66.4503 
 128   0.0000       2.443739        66.4975 
 129   0.0000       2.764701        75.2313 
 130   0.0000       2.774448        75.4966 
 131   0.0000       2.789355        75.9022 
 132   0.0000       2.871715        78.1433 
 133   0.0000       2.872563        78.1664 
 134   0.0000       3.137669        85.3803 
 135   0.0000       3.343186        90.9727 
 136   0.0000       3.360552        91.4453 
 137   0.0000       3.606967        98.1506 
 138   0.0000       3.964920       107.8910 
 139   0.0000       3.986874       108.4883 
 140   0.0000       3.988553       108.5340 
 141   0.0000       4.000404       108.8565 
 142   0.0000       4.021660       109.4349 
 143   0.0000       4.188640       113.9787 
 144   0.0000       4.325128       117.6927 
 145   0.0000       4.370663       118.9318 
 146   0.0000       4.887066       132.9838 
 147   0.0000       4.991354       135.8216 
 148   0.0000       4.991419       135.8234 
 149   0.0000       5.139373       139.8494 
 150   0.0000       5.139420       139.8507 
 151   0.0000       5.240314       142.5962 
 152   0.0000       5.250547       142.8747 
 153   0.0000       5.265636       143.2852 
 154   0.0000       5.285354       143.8218 
 155   0.0000       5.357407       145.7825 
 156   0.0000       5.368160       146.0750 
 157   0.0000       5.385751       146.5537 
 158   0.0000       5.651566       153.7869 
 159   0.0000       5.711194       155.4095 
 160   0.0000       5.732477       155.9886 
 161   0.0000       5.817831       158.3112 
 162   0.0000       5.817848       158.3117 
 163   0.0000       5.884119       160.1150 
 164   0.0000       5.907338       160.7468 
 165   0.0000       5.907355       160.7473 
 166   0.0000       5.977826       162.6649 
 167   0.0000       5.977937       162.6679 
 168   0.0000       6.052193       164.6885 
 169   0.0000       6.052200       164.6887 
 170   0.0000       6.379935       173.6069 
 171   0.0000       6.386280       173.7795 
 172   0.0000       6.394206       173.9952 
 173   0.0000       6.463040       175.8683 
 174   0.0000       6.489733       176.5946 
 175   0.0000       7.061856       192.1629 
 176   0.0000       7.061856       192.1629 
 177   0.0000       7.138900       194.2593 
 178   0.0000       7.207335       196.1216 
 179   0.0000       7.207335       196.1216 
 180   0.0000       7.332911       199.5387 
 181   0.0000       7.358121       200.2247 
 182   0.0000       8.035853       218.6667 
 183   0.0000       8.036103       218.6735 
 184   0.0000       8.352749       227.2899 
 185   0.0000       8.908018       242.3995 
 186   0.0000       8.948494       243.5009 
 187   0.0000       9.207393       250.5459 
 188   0.0000       9.213008       250.6987 
 189   0.0000       9.301983       253.1198 
 190   0.0000       9.690940       263.7039 
 191   0.0000       9.728783       264.7337 
 192   0.0000      10.384159       282.5673 
 193   0.0000      10.592667       288.2411 
 194   0.0000      10.831693       294.7454 
 195   0.0000      10.894357       296.4505 
 196   0.0000      11.596674       315.5615 
 197   0.0000      11.648178       316.9630 
 198   0.0000      11.654122       317.1248 
 199   0.0000      11.684376       317.9480 
 200   0.0000      11.685127       317.9685 
 201   0.0000      11.740430       319.4733 
 202   0.0000      11.768167       320.2281 
 203   0.0000      11.906712       323.9981 
 204   0.0000      11.906714       323.9982 
 205   0.0000      11.947224       325.1005 
 206   0.0000      11.947226       325.1005 
 207   0.0000      12.086083       328.8790 
 208   0.0000      12.086285       328.8845 
 209   0.0000      12.163529       330.9865 
 210   0.0000      12.552406       341.5683 
 211   0.0000      12.577367       342.2475 
 212   0.0000      12.589801       342.5859 
 213   0.0000      12.589929       342.5894 
 214   0.0000      12.617841       343.3489 
 215   0.0000      12.617841       343.3489 
 216   0.0000      12.635878       343.8397 
 217   0.0000      12.635879       343.8398 
 218   0.0000      12.640271       343.9593 
 219   0.0000      12.640592       343.9680 
 220   0.0000      12.936234       352.0128 
 221   0.0000      13.050749       355.1289 
 222   0.0000      13.050835       355.1313 
 223   0.0000      13.110589       356.7573 
 224   0.0000      13.151716       357.8764 
 225   0.0000      13.970224       380.1491 
 226   0.0000      13.990369       380.6973 
 227   0.0000      14.021452       381.5431 
 228   0.0000      14.021921       381.5559 
 229   0.0000      14.140952       384.7949 
 230   0.0000      14.354898       390.6166 
 231   0.0000      14.588303       396.9679 
 232   0.0000      14.612736       397.6328 
 233   0.0000      14.876455       404.8089 
 234   0.0000      14.876470       404.8093 
 235   0.0000      14.897352       405.3776 
 236   0.0000      15.241051       414.7301 
 237   0.0000      15.241207       414.7343 
 238   0.0000      15.639918       425.5838 
 239   0.0000      16.764895       456.1960 
 240   0.0000      16.797113       457.0727 
 241   0.0000      16.879246       459.3076 
 242   0.0000      16.879248       459.3077 
 243   0.0000      16.927499       460.6207 
 244   0.0000      16.927686       460.6258 
 245   0.0000      17.328264       471.5260 
 246   0.0000      17.329592       471.5622 
 247   0.0000      18.286131       497.5909 
 248   0.0000      18.385683       500.2999 
 249   0.0000      18.434063       501.6163 
 250   0.0000      19.647608       534.6386 
 251   0.0000      20.022395       544.8371 
 252   0.0000      20.022397       544.8371 
 253   0.0000      20.085983       546.5674 
 254   0.0000      20.085985       546.5674 
 255   0.0000      20.651345       561.9517 
 256   0.0000      20.651406       561.9533 
 257   0.0000      21.676028       589.8347 
 258   0.0000      21.700053       590.4885 
 259   0.0000      22.409057       609.7814 
 260   0.0000      22.782970       619.9561 
 261   0.0000      22.783142       619.9608 
 262   0.0000      23.321988       634.6236 
 263   0.0000      23.368988       635.9025 
 264   0.0000      24.972732       679.5426 
 265   0.0000      29.567827       804.5815 
 266   0.0000      30.193682       821.6119 
 267   0.0000      30.193695       821.6122 
 268   0.0000      30.553473       831.4023 
 269   0.0000      30.571376       831.8894 
 270   0.0000      31.662390       861.5774 
 271   0.0000      31.715878       863.0329 
 272   0.0000      31.915546       868.4662 
 273   0.0000      33.493862       911.4143 
 274   0.0000      41.401487      1126.5917 
 275   0.0000      41.419339      1127.0775 
 276   0.0000      41.728292      1135.4845 
 277   0.0000      43.977664      1196.6931 
 278   0.0000      66.377856      1806.2333 
 279   0.0000      66.378377      1806.2475 
 280   0.0000      66.530116      1810.3765 
 281   0.0000      66.569224      1811.4407 
 282   0.0000      67.604052      1839.5998 
 283   0.0000      91.138846      2480.0141 
 284   0.0000      91.138888      2480.0152 
 285   0.0000      91.361290      2486.0671 
 286   0.0000      91.373819      2486.4080 
 287   0.0000      92.387460      2513.9906 
 288   0.0000     142.340659      3873.2862 
 289   0.0000     201.577563      5485.2044 

                 SPIN DOWN ORBITALS
  NO   OCC          E(Eh)            E(eV) 
   0   1.0000     -24.361987      -662.9234 
   1   1.0000     -18.886901      -513.9387 
   2   1.0000      -1.213340       -33.0167 
   3   1.0000      -0.829411       -22.5694 
   4   1.0000      -0.513523       -13.9737 
   5   1.0000      -0.457516       -12.4496 
   6   1.0000      -0.453628       -12.3438 
   7   1.0000      -0.262540        -7.1441 
   8   0.0000      -0.240832        -6.5534 
   9   0.0000      -0.077754        -2.1158 
  10   0.0000       0.004210         0.1146 
  11   0.0000       0.032238         0.8772 
  12   0.0000       0.034067         0.9270 
  13   0.0000       0.036769         1.0005 
  14   0.0000       0.071791         1.9535 
  15   0.0000       0.076460         2.0806 
  16   0.0000       0.077570         2.1108 
  17   0.0000       0.145572         3.9612 
  18   0.0000       0.146270         3.9802 
  19   0.0000       0.148603         4.0437 
  20   0.0000       0.154972         4.2170 
  21   0.0000       0.155991         4.2447 
  22   0.0000       0.172976         4.7069 
  23   0.0000       0.205478         5.5913 
  24   0.0000       0.211832         5.7642 
  25   0.0000       0.214869         5.8469 
  26   0.0000       0.229243         6.2380 
  27   0.0000       0.251421         6.8415 
  28   0.0000       0.252622         6.8742 
  29   0.0000       0.278430         7.5765 
  30   0.0000       0.278814         7.5869 
  31   0.0000       0.323315         8.7978 
  32   0.0000       0.323556         8.8044 
  33   0.0000       0.347408         9.4534 
  34   0.0000       0.372810        10.1447 
  35   0.0000       0.375490        10.2176 
  36   0.0000       0.411633        11.2011 
  37   0.0000       0.413019        11.2388 
  38   0.0000       0.438118        11.9218 
  39   0.0000       0.440682        11.9916 
  40   0.0000       0.473120        12.8743 
  41   0.0000       0.502420        13.6716 
  42   0.0000       0.509458        13.8630 
  43   0.0000       0.510720        13.8974 
  44   0.0000       0.544139        14.8068 
  45   0.0000       0.544315        14.8116 
  46   0.0000       0.546864        14.8809 
  47   0.0000       0.547763        14.9054 
  48   0.0000       0.550711        14.9856 
  49   0.0000       0.570092        15.5130 
  50   0.0000       0.570162        15.5149 
  51   0.0000       0.584169        15.8961 
  52   0.0000       0.630809        17.1652 
  53   0.0000       0.633708        17.2441 
  54   0.0000       0.642580        17.4855 
  55   0.0000       0.643850        17.5200 
  56   0.0000       0.646253        17.5854 
  57   0.0000       0.693193        18.8628 
  58   0.0000       0.693541        18.8722 
  59   0.0000       0.727855        19.8059 
  60   0.0000       0.731071        19.8935 
  61   0.0000       0.757536        20.6136 
  62   0.0000       0.769523        20.9398 
  63   0.0000       0.770112        20.9558 
  64   0.0000       0.820986        22.3402 
  65   0.0000       0.821561        22.3558 
  66   0.0000       0.854799        23.2603 
  67   0.0000       0.854868        23.2621 
  68   0.0000       0.888321        24.1724 
  69   0.0000       0.888518        24.1778 
  70   0.0000       0.900784        24.5116 
  71   0.0000       0.900811        24.5123 
  72   0.0000       0.923191        25.1213 
  73   0.0000       0.924768        25.1642 
  74   0.0000       0.957328        26.0502 
  75   0.0000       0.967871        26.3371 
  76   0.0000       0.970001        26.3951 
  77   0.0000       0.998964        27.1832 
  78   0.0000       1.001662        27.2566 
  79   0.0000       1.010902        27.5080 
  80   0.0000       1.031855        28.0782 
  81   0.0000       1.032859        28.1055 
  82   0.0000       1.042595        28.3705 
  83   0.0000       1.042672        28.3726 
  84   0.0000       1.045841        28.4588 
  85   0.0000       1.046073        28.4651 
  86   0.0000       1.140884        31.0450 
  87   0.0000       1.200006        32.6538 
  88   0.0000       1.200808        32.6757 
  89   0.0000       1.203376        32.7455 
  90   0.0000       1.203833        32.7580 
  91   0.0000       1.235568        33.6215 
  92   0.0000       1.265444        34.4345 
  93   0.0000       1.265450        34.4346 
  94   0.0000       1.277208        34.7546 
  95   0.0000       1.279343        34.8127 
  96   0.0000       1.337118        36.3848 
  97   0.0000       1.361452        37.0470 
  98   0.0000       1.361477        37.0477 
  99   0.0000       1.371509        37.3207 
 100   0.0000       1.371647        37.3244 
 101   0.0000       1.418989        38.6126 
 102   0.0000       1.419443        38.6250 
 103   0.0000       1.454091        39.5678 
 104   0.0000       1.454251        39.5722 
 105   0.0000       1.455118        39.5958 
 106   0.0000       1.520027        41.3620 
 107   0.0000       1.684010        45.8243 
 108   0.0000       1.687500        45.9192 
 109   0.0000       1.751104        47.6500 
 110   0.0000       1.758489        47.8509 
 111   0.0000       1.818117        49.4735 
 112   0.0000       1.821561        49.5672 
 113   0.0000       1.828167        49.7470 
 114   0.0000       1.959094        53.3097 
 115   0.0000       2.086009        56.7632 
 116   0.0000       2.089135        56.8483 
 117   0.0000       2.177569        59.2547 
 118   0.0000       2.178131        59.2700 
 119   0.0000       2.188657        59.5564 
 120   0.0000       2.189189        59.5709 
 121   0.0000       2.197041        59.7845 
 122   0.0000       2.197574        59.7990 
 123   0.0000       2.255504        61.3754 
 124   0.0000       2.312356        62.9224 
 125   0.0000       2.312581        62.9285 
 126   0.0000       2.444885        66.5287 
 127   0.0000       2.447703        66.6054 
 128   0.0000       2.449932        66.6660 
 129   0.0000       2.774627        75.5014 
 130   0.0000       2.790268        75.9271 
 131   0.0000       2.790482        75.9329 
 132   0.0000       2.880355        78.3784 
 133   0.0000       2.881561        78.4113 
 134   0.0000       3.145338        85.5890 
 135   0.0000       3.362641        91.5021 
 136   0.0000       3.363897        91.5363 
 137   0.0000       3.624713        98.6334 
 138   0.0000       4.005843       109.0045 
 139   0.0000       4.012309       109.1805 
 140   0.0000       4.038189       109.8847 
 141   0.0000       4.042675       110.0068 
 142   0.0000       4.049739       110.1990 
 143   0.0000       4.206193       114.4563 
 144   0.0000       4.382982       119.2670 
 145   0.0000       4.400404       119.7411 
 146   0.0000       4.905724       133.4915 
 147   0.0000       5.016116       136.4955 
 148   0.0000       5.019162       136.5783 
 149   0.0000       5.154637       140.2648 
 150   0.0000       5.155933       140.3001 
 151   0.0000       5.284222       143.7910 
 152   0.0000       5.285075       143.8142 
 153   0.0000       5.308633       144.4553 
 154   0.0000       5.311506       144.5334 
 155   0.0000       5.372692       146.1984 
 156   0.0000       5.387903       146.6123 
 157   0.0000       5.389299       146.6503 
 158   0.0000       5.663928       154.1233 
 159   0.0000       5.736013       156.0848 
 160   0.0000       5.736337       156.0937 
 161   0.0000       5.853109       159.2712 
 162   0.0000       5.853946       159.2940 
 163   0.0000       5.888701       160.2397 
 164   0.0000       5.961711       162.2264 
 165   0.0000       5.962167       162.2388 
 166   0.0000       5.999232       163.2474 
 167   0.0000       6.002821       163.3451 
 168   0.0000       6.063712       165.0020 
 169   0.0000       6.063734       165.0026 
 170   0.0000       6.399045       174.1269 
 171   0.0000       6.399274       174.1331 
 172   0.0000       6.403179       174.2394 
 173   0.0000       6.492632       176.6735 
 174   0.0000       6.495578       176.7537 
 175   0.0000       7.073081       192.4683 
 176   0.0000       7.073083       192.4684 
 177   0.0000       7.149905       194.5588 
 178   0.0000       7.218539       196.4264 
 179   0.0000       7.218664       196.4298 
 180   0.0000       7.360451       200.2881 
 181   0.0000       7.362136       200.3339 
 182   0.0000       8.050335       219.0607 
 183   0.0000       8.052150       219.1101 
 184   0.0000       8.376943       227.9482 
 185   0.0000       8.956155       243.7094 
 186   0.0000       8.970175       244.0909 
 187   0.0000       9.288976       252.7659 
 188   0.0000       9.298049       253.0128 
 189   0.0000       9.326332       253.7824 
 190   0.0000       9.734979       264.9022 
 191   0.0000       9.747844       265.2523 
 192   0.0000      10.407127       283.1923 
 193   0.0000      10.629128       289.2333 
 194   0.0000      10.912014       296.9310 
 195   0.0000      10.933655       297.5199 
 196   0.0000      11.626928       316.3848 
 197   0.0000      11.672160       317.6156 
 198   0.0000      11.675657       317.7108 
 199   0.0000      11.720542       318.9322 
 200   0.0000      11.721261       318.9517 
 201   0.0000      11.770164       320.2824 
 202   0.0000      11.774425       320.3984 
 203   0.0000      11.960012       325.4485 
 204   0.0000      11.960468       325.4609 
 205   0.0000      12.017720       327.0188 
 206   0.0000      12.018008       327.0266 
 207   0.0000      12.108174       329.4802 
 208   0.0000      12.109180       329.5075 
 209   0.0000      12.192031       331.7620 
 210   0.0000      12.580138       342.3230 
 211   0.0000      12.584108       342.4310 
 212   0.0000      12.632651       343.7519 
 213   0.0000      12.632651       343.7519 
 214   0.0000      12.644166       344.0653 
 215   0.0000      12.648222       344.1756 
 216   0.0000      12.648357       344.1793 
 217   0.0000      12.653454       344.3180 
 218   0.0000      12.724329       346.2466 
 219   0.0000      12.728551       346.3615 
 220   0.0000      12.953610       352.4856 
 221   0.0000      13.073487       355.7477 
 222   0.0000      13.074073       355.7636 
 223   0.0000      13.156751       358.0134 
 224   0.0000      13.171696       358.4201 
 225   0.0000      13.993611       380.7855 
 226   0.0000      13.995843       380.8463 
 227   0.0000      14.040090       382.0503 
 228   0.0000      14.042680       382.1207 
 229   0.0000      14.152873       385.1192 
 230   0.0000      14.367569       390.9614 
 231   0.0000      14.616373       397.7317 
 232   0.0000      14.619132       397.8068 
 233   0.0000      14.899483       405.4355 
 234   0.0000      14.899527       405.4367 
 235   0.0000      14.912736       405.7962 
 236   0.0000      15.259125       415.2219 
 237   0.0000      15.260464       415.2583 
 238   0.0000      15.655475       426.0071 
 239   0.0000      16.802403       457.2166 
 240   0.0000      16.809832       457.4188 
 241   0.0000      16.972700       461.8506 
 242   0.0000      16.974262       461.8932 
 243   0.0000      16.997428       462.5235 
 244   0.0000      17.000342       462.6028 
 245   0.0000      17.377537       472.8668 
 246   0.0000      17.385860       473.0933 
 247   0.0000      18.320124       498.5159 
 248   0.0000      18.440099       501.7806 
 249   0.0000      18.455495       502.1996 
 250   0.0000      19.669076       535.2228 
 251   0.0000      20.045983       545.4789 
 252   0.0000      20.045988       545.4791 
 253   0.0000      20.103015       547.0309 
 254   0.0000      20.103060       547.0321 
 255   0.0000      20.664345       562.3054 
 256   0.0000      20.665106       562.3261 
 257   0.0000      21.701579       590.5300 
 258   0.0000      21.707171       590.6822 
 259   0.0000      22.418286       610.0326 
 260   0.0000      22.869854       622.3204 
 261   0.0000      22.880665       622.6145 
 262   0.0000      23.376835       636.1160 
 263   0.0000      23.405828       636.9050 
 264   0.0000      24.997579       680.2187 
 265   0.0000      29.609717       805.7214 
 266   0.0000      30.220198       822.3334 
 267   0.0000      30.220971       822.3544 
 268   0.0000      30.572230       831.9127 
 269   0.0000      30.580035       832.1251 
 270   0.0000      31.733864       863.5223 
 271   0.0000      31.762614       864.3047 
 272   0.0000      31.926273       868.7581 
 273   0.0000      33.518528       912.0855 
 274   0.0000      41.424312      1127.2128 
 275   0.0000      41.428123      1127.3165 
 276   0.0000      41.736849      1135.7174 
 277   0.0000      43.986198      1196.9253 
 278   0.0000      66.438080      1807.8721 
 279   0.0000      66.445743      1808.0806 
 280   0.0000      66.577945      1811.6780 
 281   0.0000      66.598368      1812.2337 
 282   0.0000      67.631613      1840.3497 
 283   0.0000      91.155706      2480.4729 
 284   0.0000      91.156108      2480.4838 
 285   0.0000      91.374438      2486.4249 
 286   0.0000      91.377700      2486.5136 
 287   0.0000      92.392254      2514.1210 
 288   0.0000     142.363583      3873.9100 
 289   0.0000     201.583657      5485.3702 

                    ********************************
                    * MULLIKEN POPULATION ANALYSIS *
                    ********************************

--------------------------------------------
MULLIKEN ATOMIC CHARGES AND SPIN POPULATIONS
--------------------------------------------
   0 O :   -0.015680    0.834895
   1 F :    0.015680    0.165105
Sum of atomic charges         :   -0.0000000
Sum of atomic spin populations:    1.0000000

-----------------------------------------------------
MULLIKEN REDUCED ORBITAL CHARGES AND SPIN POPULATIONS
-----------------------------------------------------
CHARGE
  0 O s       :     4.003344  s :     4.003344
      pz      :     0.817211  p :     3.959359
      px      :     1.168008
      py      :     1.974141
      dz2     :     0.016003  d :     0.044718
      dxz     :     0.013733
      dyz     :     0.014713
      dx2y2   :     0.000269
      dxy     :     0.000000
      f0      :     0.002461  f :     0.007832
      f+1     :     0.003011
      f-1     :     0.002234
      f+2     :     0.000016
      f-2     :     0.000000
      f+3     :     0.000054
      f-3     :     0.000056
      g0      :     0.000227  g :     0.000436
      g+1     :     0.000202
      g-1     :     0.000005
      g+2     :     0.000000
      g-2     :     0.000000
      g+3     :     0.000001
      g-3     :     0.000001
      g+4     :     0.000000
      g-4     :     0.000000
      h0      :     0.000002  h :    -0.000009
      h+1     :     0.000013
      h-1     :    -0.000024
      h+2     :     0.000000
      h-2     :     0.000000
      h+3     :     0.000000
      h-3     :     0.000000
      h+4     :     0.000000
      h-4     :     0.000000
      h+5     :     0.000000
      h-5     :     0.000000
  1 F s       :     3.933417  s :     3.933417
      pz      :     1.214691  p :     4.998137
      px      :     1.800212
      py      :     1.983234
      dz2     :     0.010473  d :     0.046544
      dxz     :     0.012895
      dyz     :     0.023160
      dx2y2   :     0.000016
      dxy     :     0.000000
      f0      :     0.001693  f :     0.006352
      f+1     :     0.001952
      f-1     :     0.002689
      f+2     :     0.000004
      f-2     :     0.000000
      f+3     :     0.000007
      f-3     :     0.000008
      g0      :     0.000153  g :    -0.000076
      g+1     :    -0.000044
      g-1     :    -0.000190
      g+2     :     0.000001
      g-2     :     0.000000
      g+3     :     0.000002
      g-3     :     0.000002
      g+4     :     0.000000
      g-4     :     0.000000
      h0      :     0.000020  h :    -0.000053
      h+1     :    -0.000021
      h-1     :    -0.000054
      h+2     :     0.000000
      h-2     :     0.000000
      h+3     :     0.000000
      h-3     :     0.000000
      h+4     :     0.000000
      h-4     :     0.000000
      h+5     :    -0.000000
      h-5     :    -0.000000

SPIN
  0 O s       :    -0.001960  s :    -0.001960
      pz      :     0.021835  p :     0.834675
      px      :     0.811660
      py      :     0.001180
      dz2     :     0.001328  d :     0.002885
      dxz     :     0.001304
      dyz     :     0.000027
      dx2y2   :     0.000227
      dxy     :     0.000000
      f0      :    -0.000232  f :    -0.000400
      f+1     :    -0.000304
      f-1     :     0.000017
      f+2     :     0.000014
      f-2     :     0.000000
      f+3     :     0.000051
      f-3     :     0.000054
      g0      :    -0.000064  g :    -0.000271
      g+1     :    -0.000173
      g-1     :    -0.000035
      g+2     :    -0.000000
      g-2     :    -0.000000
      g+3     :     0.000000
      g-3     :     0.000000
      g+4     :    -0.000000
      g-4     :    -0.000000
      h0      :    -0.000016  h :    -0.000034
      h+1     :    -0.000015
      h-1     :    -0.000002
      h+2     :    -0.000000
      h-2     :    -0.000000
      h+3     :     0.000000
      h-3     :     0.000000
      h+4     :    -0.000000
      h-4     :    -0.000000
      h+5     :    -0.000000
      h-5     :    -0.000000
  1 F s       :     0.001961  s :     0.001961
      pz      :    -0.022823  p :     0.158934
      px      :     0.181981
      py      :    -0.000225
      dz2     :     0.000069  d :     0.004304
      dxz     :     0.005071
      dyz     :    -0.000848
      dx2y2   :     0.000012
      dxy     :     0.000000
      f0      :    -0.000219  f :     0.000136
      f+1     :     0.000470
      f-1     :    -0.000126
      f+2     :    -0.000000
      f-2     :    -0.000000
      f+3     :     0.000006
      f-3     :     0.000007
      g0      :    -0.000098  g :    -0.000189
      g+1     :    -0.000070
      g-1     :    -0.000025
      g+2     :    -0.000000
      g-2     :    -0.000000
      g+3     :     0.000002
      g-3     :     0.000002
      g+4     :    -0.000000
      g-4     :    -0.000000
      h0      :    -0.000030  h :    -0.000040
      h+1     :    -0.000009
      h-1     :    -0.000001
      h+2     :     0.000000
      h-2     :     0.000000
      h+3     :     0.000000
      h-3     :     0.000001
      h+4     :    -0.000000
      h-4     :    -0.000000
      h+5     :     0.000000
      h-5     :     0.000000


                     *******************************
                     * LOEWDIN POPULATION ANALYSIS *
                     *******************************

-------------------------------------------
LOEWDIN ATOMIC CHARGES AND SPIN POPULATIONS
-------------------------------------------
   0 O :    0.135471    0.727355
   1 F :   -0.135471    0.272645

----------------------------------------------------
LOEWDIN REDUCED ORBITAL CHARGES AND SPIN POPULATIONS
----------------------------------------------------
CHARGE
  0 O s       :     3.462145  s :     3.462145
      pz      :     0.968245  p :     3.703949
      px      :     1.040783
      py      :     1.694920
      dz2     :     0.190266  d :     0.393173
      dxz     :     0.092381
      dyz     :     0.110275
      dx2y2   :     0.000252
      dxy     :     0.000000
      f0      :     0.082779  f :     0.209113
      f+1     :     0.057061
      f-1     :     0.069145
      f+2     :     0.000016
      f-2     :     0.000000
      f+3     :     0.000054
      f-3     :     0.000057
      g0      :     0.025539  g :     0.066339
      g+1     :     0.018195
      g-1     :     0.022602
      g+2     :     0.000001
      g-2     :     0.000000
      g+3     :     0.000000
      g-3     :     0.000001
      g+4     :     0.000000
      g-4     :     0.000000
      h0      :     0.010683  h :     0.029811
      h+1     :     0.008943
      h-1     :     0.010183
      h+2     :     0.000000
      h-2     :     0.000000
      h+3     :     0.000000
      h-3     :     0.000000
      h+4     :     0.000000
      h-4     :     0.000000
      h+5     :     0.000000
      h-5     :     0.000000
  1 F s       :     3.564194  s :     3.564194
      pz      :     1.374827  p :     4.814288
      px      :     1.632376
      py      :     1.807085
      dz2     :     0.188935  d :     0.404922
      dxz     :     0.072581
      dyz     :     0.143388
      dx2y2   :     0.000018
      dxy     :     0.000000
      f0      :     0.084697  f :     0.216415
      f+1     :     0.045318
      f-1     :     0.086382
      f+2     :     0.000008
      f-2     :     0.000000
      f+3     :     0.000005
      f-3     :     0.000006
      g0      :     0.033711  g :     0.092119
      g+1     :     0.021002
      g-1     :     0.037397
      g+2     :     0.000006
      g-2     :     0.000000
      g+3     :     0.000002
      g-3     :     0.000002
      g+4     :     0.000000
      g-4     :     0.000000
      h0      :     0.013672  h :     0.043533
      h+1     :     0.011320
      h-1     :     0.018532
      h+2     :     0.000006
      h-2     :     0.000000
      h+3     :     0.000002
      h-3     :     0.000002
      h+4     :     0.000000
      h-4     :     0.000000
      h+5     :     0.000000
      h-5     :     0.000000

SPIN
  0 O s       :     0.005414  s :     0.005414
      pz      :     0.010937  p :     0.693873
      px      :     0.678851
      py      :     0.004084
      dz2     :     0.000070  d :     0.013140
      dxz     :     0.013763
      dyz     :    -0.000900
      dx2y2   :     0.000207
      dxy     :     0.000000
      f0      :    -0.000639  f :     0.010367
      f+1     :     0.011075
      f-1     :    -0.000190
      f+2     :     0.000014
      f-2     :     0.000000
      f+3     :     0.000052
      f-3     :     0.000055
      g0      :    -0.000170  g :     0.003532
      g+1     :     0.003793
      g-1     :    -0.000090
      g+2     :     0.000000
      g-2     :     0.000000
      g+3     :     0.000000
      g-3     :     0.000000
      g+4     :    -0.000000
      g-4     :    -0.000000
      h0      :    -0.000081  h :     0.001029
      h+1     :     0.001116
      h-1     :    -0.000006
      h+2     :     0.000000
      h-2     :     0.000000
      h+3     :     0.000000
      h-3     :     0.000000
      h+4     :    -0.000000
      h-4     :    -0.000000
      h+5     :    -0.000000
      h-5     :    -0.000000
  1 F s       :     0.000729  s :     0.000729
      pz      :    -0.017636  p :     0.155712
      px      :     0.173427
      py      :    -0.000080
      dz2     :     0.000349  d :     0.053311
      dxz     :     0.055456
      dyz     :    -0.002510
      dx2y2   :     0.000015
      dxy     :     0.000000
      f0      :     0.000621  f :     0.038267
      f+1     :     0.038085
      f-1     :    -0.000453
      f+2     :     0.000005
      f-2     :     0.000000
      f+3     :     0.000004
      f-3     :     0.000005
      g0      :     0.000139  g :     0.016567
      g+1     :     0.016415
      g-1     :     0.000005
      g+2     :     0.000005
      g-2     :     0.000000
      g+3     :     0.000001
      g-3     :     0.000002
      g+4     :    -0.000000
      g-4     :    -0.000000
      h0      :     0.000015  h :     0.008059
      h+1     :     0.007934
      h-1     :     0.000101
      h+2     :     0.000005
      h-2     :     0.000000
      h+3     :     0.000001
      h-3     :     0.000002
      h+4     :    -0.000000
      h-4     :    -0.000000
      h+5     :    -0.000000
      h-5     :    -0.000000


                      *****************************
                      * MAYER POPULATION ANALYSIS *
                      *****************************

  NA   - Mulliken gross atomic population
  ZA   - Total nuclear charge
  QA   - Mulliken gross atomic charge
  VA   - Mayer's total valence
  BVA  - Mayer's bonded valence
  FA   - Mayer's free valence

  ATOM       NA         ZA         QA         VA         BVA        FA
  0 O      8.0157     8.0000    -0.0157     1.8688     1.1997     0.6691
  1 F      8.9843     9.0000     0.0157     1.2445     1.1997     0.0448

  Mayer bond orders larger than 0.1
B(  0-O ,  1-F ) :   1.1997 

-------
TIMINGS
-------

Total SCF time: 0 days 0 hours 20 min 8 sec 

Total time                  ....    1208.906 sec
Sum of individual times     ....    1208.152 sec  ( 99.9%)

Fock matrix formation       ....    1203.021 sec  ( 99.5%)
  XC integration            ....      54.212 sec  (  4.5% of F)
    Basis function eval.    ....       4.443 sec  (  8.2% of XC)
    Density eval.           ....      11.970 sec  ( 22.1% of XC)
    XC-Functional eval.     ....       0.766 sec  (  1.4% of XC)
    XC-Potential eval.      ....      36.053 sec  ( 66.5% of XC)
Diagonalization             ....       0.627 sec  (  0.1%)
Density matrix formation    ....       0.014 sec  (  0.0%)
Population analysis         ....       0.112 sec  (  0.0%)
Initial guess               ....       2.134 sec  (  0.2%)
Orbital Transformation      ....       0.000 sec  (  0.0%)
Orbital Orthonormalization  ....       0.000 sec  (  0.0%)
DIIS solution               ....       0.662 sec  (  0.1%)
Grid generation             ....       1.582 sec  (  0.1%)

-------------------------   --------------------
FINAL SINGLE POINT ENERGY      -174.806100089362
-------------------------   --------------------


                            ***************************************
                            *     ORCA property calculations      *
                            ***************************************

                                    ---------------------
                                    Active property flags
                                    ---------------------
   (+) Dipole Moment
   (+) Polarizability


------------------------------------------------------------------------------
                       ORCA ELECTRIC PROPERTIES CALCULATION
------------------------------------------------------------------------------

Dipole Moment Calculation                       ... on
Quadrupole Moment Calculation                   ... off
Polarizability Calculation                      ... Analytic (CP-SCF)
GBWName                                         ... of_pbe.gbw
Electron density file                           ... of_pbe.scfp.tmp
The origin for moment calculation is the CENTER OF MASS  = ( 0.000000,  0.000000  1.389078)

-------------
DIPOLE MOMENT
-------------
                                X             Y             Z
Electronic contribution:      0.00000       0.00000       0.66068
Nuclear contribution   :      0.00000       0.00000      -0.58442
                        -----------------------------------------
Total Dipole Moment    :      0.00000       0.00000       0.07625
                        -----------------------------------------
Magnitude (a.u.)       :      0.07625
Magnitude (Debye)      :      0.19381



--------------------
Rotational spectrum 
--------------------
 
Rotational constants in cm-1:     0.000000     1.058584     1.058584 
Rotational constants in MHz :     0.000000 31735.564190 31735.564190 

 Dipole components along the rotational axes: 
x,y,z [a.u.] :     0.076251     0.000000     0.000000 
x,y,z [Debye]:     0.193814     0.000000     0.000000 

 
Transforming and storing MO dipole integrals   ... done

                ... starting polarizability calculation

Opening the Dipole integral file               ... (of_pbe.dmo.tmp) done
Reading Dipole-MO integrals                    ... done
Solving CP-SCF equations                       ... 
------------------------------------------------------------------------------
                           ORCA CP-SCF CALCULATION
------------------------------------------------------------------------------

Input orbitals are from        ... of_pbe.gbw
Input Perturbation             ... of_pbe.cpv.tmp
Wavefunction output            ... of_pbe.cpu.tmp
Perturbation mode              ... Real perturbation (singlet)
Solver                         ... POPLE
Max. number of iterations      ... 200
Convergence tolerance          ... 1.000e-06
Integral handling              ... Direct
Number of perturbations        ... 3
Number of operators            ... 2
Orbital ranges used for CP-SCF:
 Operator 0:  Orbitals   0...  8  to   9...289
 Operator 1:  Orbitals   0...  7  to   8...289
DFT calculation                         ... on
Exchange functional (SCF)               ... PBE
Exchange functional (CP-SCF)            ... PBE
   PBE kappa parameter  XKappa (SCF)    ...  0.804000
   PBE kappa parameter  XKappa (CP-SCF) ...  0.804000
   PBE mue parameter   XMuePBE (SCF)    ...  0.219520
   PBE mue parameter   XMuePBE (CP-SCF) ...  0.219520
Correlation functional (SCF)            ... PBE
Correlation functional (CP-SCF)         ... PBE
   PBE beta parameter CBetaPBE (SCF)    ...  0.066725
   PBE beta parameter CBetaPBE (CP-SCF) ...  0.066725
 LDA part of GGA corr.  LDAOpt (SCF)    ... PW91-LDA
 LDA part of GGA corr.  LDAOpt (CP-SCF) ... PW91-LDA
Variables per vector in CP-SCF ... 4785
Number of vectors sought       ... 3
Recalculating density on grid  ... done
Calculating the xc-kernel      ... done
     CP-SCF ITERATION   0: 
     CP-SCF ITERATION   1:      0.124950228739
     CP-SCF ITERATION   2:      0.004370247802
     CP-SCF ITERATION   3:      0.000427207862
     CP-SCF ITERATION   4:      0.000035318461
     CP-SCF ITERATION   5:      0.000004784426
     CP-SCF ITERATION   6:      0.000000430061
done
Reading CP-SCF coefficients                    ... done
Doing the polarizability tensor   ... done
Cleaning up                                    ... done

-------------------------
THE POLARIZABILITY TENSOR
-------------------------

The raw cartesian tensor (atomic units):
    7.98681      0.00306      0.00000  
    0.00306      8.60179      0.00000  
    0.00000      0.00000     14.57389  
diagonalized tensor: 
    7.98680      8.60180     14.57389  

    0.99999     -0.00498      0.00000  
   -0.00498     -0.99999      0.00000  
   -0.00000      0.00000      1.00000  

Isotropic polarizability :  10.38750


Timings for individual modules:

Sum of individual times         ...     2192.059 sec (=  36.534 min)
GTO integral calculation        ...        5.832 sec (=   0.097 min)   0.3 %
SCF iterations                  ...     1209.008 sec (=  20.150 min)  55.2 %
Solution of CP-SCF eqns.        ...      977.219 sec (=  16.287 min)  44.6 %
                             ****ORCA TERMINATED NORMALLY****
TOTAL RUN TIME: 0 days 0 hours 36 minutes 36 seconds 899 msec
