
                                 *****************
                                 * O   R   C   A *
                                 *****************

           --- An Ab Initio, DFT and Semiempirical electronic structure package ---

                  #######################################################
                  #                        -***-                        #
                  #          Department of theory and spectroscopy      #
                  #               Directorship: Frank Neese             #
                  #        Max Planck Institute fuer Kohlenforschung    #
                  #                Kaiser Wilhelm Platz 1               #
                  #                 D-45470 Muelheim/Ruhr               #
                  #                      Germany                        #
                  #                                                     #
                  #                  All rights reserved                #
                  #                        -***-                        #
                  #######################################################


                         Program Version 4.1.2  - RELEASE  -


 With contributions from (in alphabetic order):
   Daniel Aravena         : Magnetic Properties
   Michael Atanasov       : Ab Initio Ligand Field Theory
   Alexander A. Auer      : GIAO ZORA
   Ute Becker             : Parallelization
   Giovanni Bistoni       : ED, Open-shell LED
   Martin Brehm           : Molecular dynamics
   Dmytro Bykov           : SCF Hessian
   Vijay G. Chilkuri      : MRCI spin determinant printing
   Dipayan Datta          : RHF DLPNO-CCSD density
   Achintya Kumar Dutta   : EOM-CC, STEOM-CC
   Dmitry Ganyushin       : Spin-Orbit,Spin-Spin,Magnetic field MRCI
   Miquel Garcia          : C-PCM Hessian
   Yang Guo               : DLPNO-NEVPT2, CIM, IAO-localization
   Andreas Hansen         : Spin unrestricted coupled pair/coupled cluster methods
   Benjamin Helmich-Paris : CASSCF linear response (MC-RPA)
   Lee Huntington         : MR-EOM, pCC
   Robert Izsak           : Overlap fitted RIJCOSX, COSX-SCS-MP3, EOM
   Christian Kollmar      : KDIIS, OOCD, Brueckner-CCSD(T), CCSD density
   Simone Kossmann        : Meta GGA functionals, TD-DFT gradient, OOMP2, MP2 Hessian
   Martin Krupicka        : AUTO-CI
   Lucas Lang             : DCDCAS
   Dagmar Lenk            : GEPOL surface, SMD
   Dimitrios Liakos       : Extrapolation schemes; parallel MDCI
   Dimitrios Manganas     : ROCIS; embedding schemes
   Dimitrios Pantazis     : SARC Basis sets
   Taras Petrenko         : DFT Hessian,TD-DFT gradient, ASA, ECA, R-Raman, ABS, FL, XAS/XES, NRVS
   Peter Pinski           : DLPNO-MP2, DLPNO-MP2 Gradient
   Christoph Reimann      : Effective Core Potentials
   Marius Retegan         : Local ZFS, SOC
   Christoph Riplinger    : Optimizer, TS searches, QM/MM, DLPNO-CCSD(T), (RO)-DLPNO pert. Triples
   Tobias Risthaus        : Range-separated hybrids, TD-DFT gradient, RPA, STAB
   Michael Roemelt        : Restricted open shell CIS
   Masaaki Saitow         : Open-shell DLPNO
   Barbara Sandhoefer     : DKH picture change effects
   Avijit Sen             : IP-ROCIS
   Kantharuban Sivalingam : CASSCF convergence, NEVPT2, FIC-MRCI
   Bernardo de Souza      : ESD, SOC TD-DFT
   Georgi Stoychev        : AutoAux, RI-MP2 NMR
   Willem Van den Heuvel  : Paramagnetic NMR
   Boris Wezisla          : Elementary symmetry handling
   Frank Wennmohs         : Technical directorship


 We gratefully acknowledge several colleagues who have allowed us to
 interface, adapt or use parts of their codes:
   Stefan Grimme, W. Hujo, H. Kruse,             : VdW corrections, initial TS optimization,
                  C. Bannwarth                     DFT functionals, gCP, sTDA/sTD-DF
   Ed Valeev                                     : LibInt (2-el integral package), F12 methods
   Garnet Chan, S. Sharma, J. Yang, R. Olivares  : DMRG
   Ulf Ekstrom                                   : XCFun DFT Library
   Mihaly Kallay                                 : mrcc  (arbitrary order and MRCC methods)
   Andreas Klamt, Michael Diedenhofen            : otool_cosmo (COSMO solvation model)
   Jiri Pittner, Ondrej Demel                    : Mk-CCSD
   Frank Weinhold                                : gennbo (NPA and NBO analysis)
   Christopher J. Cramer and Donald G. Truhlar   : smd solvation model
   Lars Goerigk                                  : TD-DFT with DH, B97 family of functionals
   V. Asgeirsson, H. Jonsson                     : NEB implementation
   FAccTs GmbH                                   : IRC, NEB, NEB-TS, Multilevel


 Your calculation uses the libint2 library for the computation of 2-el integrals
 For citations please refer to: http://libint.valeyev.net

 This ORCA versions uses:
   CBLAS   interface :  Fast vector & matrix operations
   LAPACKE interface :  Fast linear algebra routines
   SCALAPACK package :  Parallel linear algebra routines


----- Orbital basis set information -----
Your calculation utilizes the basis: aug-pc-4
   H, C-F              : F. Jensen, J. Chem. Phys. 115, 9113 (2001).
                         F. Jensen, J. Chem. Phys. 116, 7372 (2002).
                         F. Jensen, J. Chem. Phys. 117, 9234 (2002).
   Si-Cl               : F. Jensen, T. Helgaker, J. Chem. Phys. 121, 3463 (2004).
   He-B, Ne-Mg, Al, Ar : F. Jensen, J. Phys. Chem. A 111, 11198 (2007).
   K, Ca, Ga-Kr        : F. Jensen, J. Chem. Phys. 136, 094110 (2012).
   Sc-Zn               : F. Jensen, J. Chem. Phys. 138, 014107 (2013).

================================================================================
                                        WARNINGS
                       Please study these warnings very carefully!
================================================================================


INFO   : the flag for use of LIBINT has been found!

================================================================================
                                       INPUT FILE
================================================================================
NAME = p2_pbe.inp
|  1> !uks pbe nori aug-pc-4 grid7 nofinalgrid verytightscf
|  2> 
|  3> %maxcore 1500
|  4> 
|  5> %pal nprocs 1 end
|  6> 
|  7> %scf
|  8> 	maxiter 200
|  9> end
| 10> %elprop
| 11> 	dipole true
| 12> 	 polar 1
| 13> 	 maxiter 200
| 14> end
| 15> 
| 16> * xyz 0 1
| 17> P 0.0000 0.0000 0.0000
| 18> P 0.0000 0.0000 1.8934
| 19> *
| 20> 
| 21>                          ****END OF INPUT****
================================================================================

                       ****************************
                       * Single Point Calculation *
                       ****************************

---------------------------------
CARTESIAN COORDINATES (ANGSTROEM)
---------------------------------
  P      0.000000    0.000000    0.000000
  P      0.000000    0.000000    1.893400

----------------------------
CARTESIAN COORDINATES (A.U.)
----------------------------
  NO LB      ZA    FRAG     MASS         X           Y           Z
   0 P    15.0000    0    30.974    0.000000    0.000000    0.000000
   1 P    15.0000    0    30.974    0.000000    0.000000    3.578007

--------------------------------
INTERNAL COORDINATES (ANGSTROEM)
--------------------------------
 P      0   0   0     0.000000000000     0.00000000     0.00000000
 P      1   0   0     1.893400000000     0.00000000     0.00000000

---------------------------
INTERNAL COORDINATES (A.U.)
---------------------------
 P      0   0   0     0.000000000000     0.00000000     0.00000000
 P      1   0   0     3.578007461966     0.00000000     0.00000000

---------------------
BASIS SET INFORMATION
---------------------
There are 1 groups of distinct atoms

 Group   1 Type P   : 44s27p7d4f3g2h contracted to 8s7p7d4f3g2h pattern {15121211111/111111111/1111111/1111/111/11}

Atom   0P    basis set group =>   1
Atom   1P    basis set group =>   1
------------------------------------------------------------------------------
                           ORCA GTO INTEGRAL CALCULATION
------------------------------------------------------------------------------

                         BASIS SET STATISTICS AND STARTUP INFO

 # of primitive gaussian shells          ...  174
 # of primitive gaussian functions       ...  474
 # of contracted shells                  ...   62
 # of contracted basis functions         ...  282
 Highest angular momentum                ...    5
 Maximum contraction depth               ...   15
 Integral package used                   ... LIBINT
 Integral threshhold            Thresh   ...  1.000e-12
 Primitive cut-off              TCut     ...  1.000e-14


------------------------------ INTEGRAL EVALUATION ----------------------------


 * One electron integrals 
 Pre-screening matrix                    ... done
 Shell pair data                         ... done (   0.001 sec)

-------------------------------------------------------------------------------
                                 ORCA SCF
-------------------------------------------------------------------------------

------------
SCF SETTINGS
------------
Hamiltonian:
 Density Functional     Method          .... DFT(GTOs)
 Exchange Functional    Exchange        .... PBE
   PBE kappa parameter   XKappa         ....  0.804000
   PBE mue parameter    XMuePBE         ....  0.219520
 Correlation Functional Correlation     .... PBE
   PBE beta parameter  CBetaPBE         ....  0.066725
 LDA part of GGA corr.  LDAOpt          .... PW91-LDA
 Gradients option       PostSCFGGA      .... off
   Density functional embedding theory  .... OFF
   NL short-range parameter             ....  6.400000


General Settings:
 Integral files         IntName         .... p2_pbe
 Hartree-Fock type      HFTyp           .... UHF
 Total Charge           Charge          ....    0
 Multiplicity           Mult            ....    1
 Number of Electrons    NEL             ....   30
 Basis Dimension        Dim             ....  282
 Nuclear Repulsion      ENuc            ....     62.8841617553 Eh

Convergence Acceleration:
 DIIS                   CNVDIIS         .... on
   Start iteration      DIISMaxIt       ....    12
   Startup error        DIISStart       ....  0.200000
   # of expansion vecs  DIISMaxEq       ....     5
   Bias factor          DIISBfac        ....   1.050
   Max. coefficient     DIISMaxC        ....  10.000
 Newton-Raphson         CNVNR           .... off
 SOSCF                  CNVSOSCF        .... off
 Level Shifting         CNVShift        .... on
   Level shift para.    LevelShift      ....    0.2500
   Turn off err/grad.   ShiftErr        ....    0.0010
 Zerner damping         CNVZerner       .... off
 Static damping         CNVDamp         .... on
   Fraction old density DampFac         ....    0.7000
   Max. Damping (<1)    DampMax         ....    0.9800
   Min. Damping (>=0)   DampMin         ....    0.0000
   Turn off err/grad.   DampErr         ....    0.1000
 Fernandez-Rico         CNVRico         .... off

SCF Procedure:
 Maximum # iterations   MaxIter         ....   200
 SCF integral mode      SCFMode         .... Direct
   Integral package                     .... LIBINT
 Reset frequency        DirectResetFreq ....    20
 Integral Threshold     Thresh          ....  1.000e-12 Eh
 Primitive CutOff       TCut            ....  1.000e-14 Eh

Convergence Tolerance:
 Convergence Check Mode ConvCheckMode   .... Total+1el-Energy
 Convergence forced     ConvForced      .... 0
 Energy Change          TolE            ....  1.000e-09 Eh
 1-El. energy change                    ....  1.000e-06 Eh
 DIIS Error             TolErr          ....  1.000e-08


Diagonalization of the overlap matrix:
Smallest eigenvalue                        ... 2.569e-06
Time for diagonalization                   ...    0.015 sec
Threshold for overlap eigenvalues          ... 1.000e-08
Number of eigenvalues below threshold      ... 0
Time for construction of square roots      ...    0.010 sec
Total time needed                          ...    0.025 sec

-------------------
DFT GRID GENERATION
-------------------

General Integration Accuracy     IntAcc      ...  5.670
Radial Grid Type                 RadialGrid  ... Gauss-Chebyshev
Angular Grid (max. acc.)         AngularGrid ... Lebedev-770
Angular grid pruning method      GridPruning ... 3 (G Style)
Weight generation scheme         WeightScheme... Becke
Basis function cutoff            BFCut       ...    1.0000e-12
Integration weight cutoff        WCut        ...    1.0000e-14
Grids for H and He will be reduced by one unit

# of grid points (after initial pruning)     ...  54384 (   0.0 sec)
# of grid points (after weights+screening)   ...  54218 (   0.0 sec)
nearest neighbour list constructed           ...    0.0 sec
Grid point re-assignment to atoms done       ...    0.0 sec
Grid point division into batches done        ...    1.4 sec
Reduced shell lists constructed in    2.0 sec

Total number of grid points                  ...    54218
Total number of batches                      ...      848
Average number of points per batch           ...       63
Average number of grid points per atom       ...    27109
Average number of shells per batch           ...    47.33 (76.34%)
Average number of basis functions per batch  ...   218.87 (77.61%)
Average number of large shells per batch     ...    42.72 (90.26%)
Average number of large basis fcns per batch ...   198.41 (90.65%)
Maximum spatial batch extension              ...  16.29, 16.29, 24.22 au
Average spatial batch extension              ...   2.88,  2.87,  2.66 au

Time for grid setup =    2.033 sec

------------------------------
INITIAL GUESS: MODEL POTENTIAL
------------------------------
Loading Hartree-Fock densities                     ... done
Calculating cut-offs                               ... done
Setting up the integral package                    ... done
Initializing the effective Hamiltonian             ... done
Starting the Coulomb interaction                   ... done (   0.1 sec)
Reading the grid                                   ... done
Mapping shells                                     ... done
Starting the XC term evaluation                    ... done (   2.3 sec)
  promolecular density results
     # of electrons  =     30.000000417
     EX              =    -44.971314561
     EC              =     -1.125080710
     EX+EC           =    -46.096395271
Transforming the Hamiltonian                       ... done (   0.0 sec)
Diagonalizing the Hamiltonian                      ... done (   0.0 sec)
Back transforming the eigenvectors                 ... done (   0.0 sec)
Now organizing SCF variables                       ... done
                      ------------------
                      INITIAL GUESS DONE (   4.6 sec)
                      ------------------
--------------
SCF ITERATIONS
--------------
ITER       Energy         Delta-E        Max-DP      RMS-DP      [F,P]     Damp
               ***  Starting incremental Fock matrix formation  ***
  0   -682.3998583348   0.000000000000 0.02040755  0.00029286  0.0928289 0.7000
  1   -682.4117664223  -0.011908087582 0.01013781  0.00017953  0.0496571 0.7000
                               ***Turning on DIIS***
  2   -682.4168262257  -0.005059803316 0.01489907  0.00028212  0.0170375 0.0000
  3   -682.4217793372  -0.004953111582 0.00797143  0.00012597  0.0355376 0.0000
  4   -682.4246966209  -0.002917283664 0.00207938  0.00003413  0.0096297 0.0000
  5   -682.4249620388  -0.000265417930 0.00037938  0.00000741  0.0024636 0.0000
  6   -682.4249842800  -0.000022241193 0.00025517  0.00000571  0.0007825 0.0000
  7   -682.4249875599  -0.000003279902 0.00003696  0.00000041  0.0000586 0.0000
  8   -682.4249875712  -0.000000011227 0.00005084  0.00000058  0.0000075 0.0000
  9   -682.4249875713  -0.000000000177 0.00002415  0.00000025  0.0000011 0.0000
 10   -682.4249875713  -0.000000000006 0.00000454  0.00000005  0.0000003 0.0000
 11   -682.4249875713   0.000000000004 0.00003281  0.00000033  0.0000000 0.0000
                 **** Energy Check signals convergence ****

               *****************************************************
               *                     SUCCESS                       *
               *           SCF CONVERGED AFTER  12 CYCLES          *
               *****************************************************


----------------
TOTAL SCF ENERGY
----------------

Total Energy       :         -682.42498757 Eh          -18569.72798 eV

Components:
Nuclear Repulsion  :           62.88416176 Eh            1711.16504 eV
Electronic Energy  :         -745.30914933 Eh          -20280.89301 eV
One Electron Energy:        -1069.28633322 Eh          -29096.76038 eV
Two Electron Energy:          323.97718389 Eh            8815.86736 eV

Virial components:
Potential Energy   :        -1364.29813239 Eh          -37124.43955 eV
Kinetic Energy     :          681.87314482 Eh           18554.71157 eV
Virial Ratio       :            2.00080930


DFT components:
N(Alpha)           :       15.000000386277 electrons
N(Beta)            :       15.000000386277 electrons
N(Total)           :       30.000000772553 electrons
E(X)               :      -44.986664850200 Eh       
E(C)               :       -1.125584643440 Eh       
E(XC)              :      -46.112249493640 Eh       
DFET-embed. en.    :        0.000000000000 Eh       

---------------
SCF CONVERGENCE
---------------

  Last Energy change         ...   -2.7285e-12  Tolerance :   1.0000e-09
  Last MAX-Density change    ...    1.4565e-05  Tolerance :   1.0000e-08
  Last RMS-Density change    ...    1.4652e-07  Tolerance :   1.0000e-09
  Last DIIS Error            ...    4.5208e-08  Tolerance :   1.0000e-08

             **** THE GBW FILE WAS UPDATED (p2_pbe.gbw) ****
             **** DENSITY FILE WAS UPDATED (p2_pbe.scfp.tmp) ****
             **** ENERGY FILE WAS UPDATED (p2_pbe.en.tmp) ****
----------------------
UHF SPIN CONTAMINATION
----------------------

Warning: in a DFT calculation there is little theoretical justification to 
         calculate <S**2> as in Hartree-Fock theory. We will do it anyways
         but you should keep in mind that the values have only limited relevance

Expectation value of <S**2>     :    -0.000000
Ideal value S*(S+1) for S=0.0   :     0.000000
Deviation                       :    -0.000000

----------------
ORBITAL ENERGIES
----------------
                 SPIN UP ORBITALS
  NO   OCC          E(Eh)            E(eV) 
   0   1.0000     -76.306637     -2076.4092 
   1   1.0000     -76.306637     -2076.4092 
   2   1.0000      -6.325597      -172.1282 
   3   1.0000      -6.325156      -172.1162 
   4   1.0000      -4.541716      -123.5864 
   5   1.0000      -4.541716      -123.5864 
   6   1.0000      -4.541522      -123.5811 
   7   1.0000      -4.541522      -123.5811 
   8   1.0000      -4.537582      -123.4739 
   9   1.0000      -4.535400      -123.4145 
  10   1.0000      -0.621440       -16.9102 
  11   1.0000      -0.423937       -11.5359 
  12   1.0000      -0.264767        -7.2047 
  13   1.0000      -0.261977        -7.1288 
  14   1.0000      -0.261977        -7.1288 
  15   0.0000      -0.125966        -3.4277 
  16   0.0000      -0.125966        -3.4277 
  17   0.0000      -0.008657        -0.2356 
  18   0.0000      -0.003933        -0.1070 
  19   0.0000       0.012734         0.3465 
  20   0.0000       0.012734         0.3465 
  21   0.0000       0.023770         0.6468 
  22   0.0000       0.035120         0.9557 
  23   0.0000       0.035120         0.9557 
  24   0.0000       0.037999         1.0340 
  25   0.0000       0.047228         1.2851 
  26   0.0000       0.047228         1.2851 
  27   0.0000       0.072309         1.9676 
  28   0.0000       0.080042         2.1780 
  29   0.0000       0.080042         2.1780 
  30   0.0000       0.080906         2.2016 
  31   0.0000       0.104054         2.8314 
  32   0.0000       0.104054         2.8314 
  33   0.0000       0.106060         2.8860 
  34   0.0000       0.106060         2.8860 
  35   0.0000       0.109542         2.9808 
  36   0.0000       0.109542         2.9808 
  37   0.0000       0.111516         3.0345 
  38   0.0000       0.130854         3.5607 
  39   0.0000       0.169545         4.6135 
  40   0.0000       0.173646         4.7251 
  41   0.0000       0.173646         4.7251 
  42   0.0000       0.173848         4.7306 
  43   0.0000       0.173848         4.7306 
  44   0.0000       0.180447         4.9102 
  45   0.0000       0.180447         4.9102 
  46   0.0000       0.184829         5.0294 
  47   0.0000       0.184829         5.0294 
  48   0.0000       0.187087         5.0909 
  49   0.0000       0.222171         6.0456 
  50   0.0000       0.222171         6.0456 
  51   0.0000       0.229950         6.2572 
  52   0.0000       0.229950         6.2572 
  53   0.0000       0.257700         7.0124 
  54   0.0000       0.258600         7.0369 
  55   0.0000       0.258689         7.0393 
  56   0.0000       0.258689         7.0393 
  57   0.0000       0.283670         7.7191 
  58   0.0000       0.283670         7.7191 
  59   0.0000       0.290930         7.9166 
  60   0.0000       0.305363         8.3093 
  61   0.0000       0.305363         8.3093 
  62   0.0000       0.333511         9.0753 
  63   0.0000       0.333511         9.0753 
  64   0.0000       0.341618         9.2959 
  65   0.0000       0.341618         9.2959 
  66   0.0000       0.363015         9.8781 
  67   0.0000       0.363015         9.8781 
  68   0.0000       0.382344        10.4041 
  69   0.0000       0.396117        10.7789 
  70   0.0000       0.401973        10.9382 
  71   0.0000       0.401973        10.9382 
  72   0.0000       0.413733        11.2582 
  73   0.0000       0.413733        11.2582 
  74   0.0000       0.413849        11.2614 
  75   0.0000       0.413849        11.2614 
  76   0.0000       0.418972        11.4008 
  77   0.0000       0.418972        11.4008 
  78   0.0000       0.451749        12.2927 
  79   0.0000       0.451749        12.2927 
  80   0.0000       0.461807        12.5664 
  81   0.0000       0.465682        12.6718 
  82   0.0000       0.465682        12.6718 
  83   0.0000       0.467673        12.7260 
  84   0.0000       0.467673        12.7260 
  85   0.0000       0.475241        12.9320 
  86   0.0000       0.475242        12.9320 
  87   0.0000       0.514967        14.0130 
  88   0.0000       0.515131        14.0174 
  89   0.0000       0.515131        14.0174 
  90   0.0000       0.518813        14.1176 
  91   0.0000       0.539712        14.6863 
  92   0.0000       0.539712        14.6863 
  93   0.0000       0.540359        14.7039 
  94   0.0000       0.540359        14.7039 
  95   0.0000       0.563707        15.3392 
  96   0.0000       0.563707        15.3392 
  97   0.0000       0.568658        15.4740 
  98   0.0000       0.568658        15.4740 
  99   0.0000       0.597468        16.2579 
 100   0.0000       0.597468        16.2579 
 101   0.0000       0.604497        16.4492 
 102   0.0000       0.608912        16.5693 
 103   0.0000       0.608912        16.5693 
 104   0.0000       0.688029        18.7222 
 105   0.0000       0.695968        18.9382 
 106   0.0000       0.695968        18.9382 
 107   0.0000       0.705120        19.1873 
 108   0.0000       0.705120        19.1873 
 109   0.0000       0.706399        19.2221 
 110   0.0000       0.706399        19.2221 
 111   0.0000       0.719287        19.5728 
 112   0.0000       0.719287        19.5728 
 113   0.0000       0.749976        20.4079 
 114   0.0000       0.778882        21.1945 
 115   0.0000       0.778882        21.1945 
 116   0.0000       0.783163        21.3109 
 117   0.0000       0.823300        22.4031 
 118   0.0000       0.861115        23.4321 
 119   0.0000       0.861115        23.4321 
 120   0.0000       0.904395        24.6098 
 121   0.0000       0.904395        24.6098 
 122   0.0000       0.939064        25.5532 
 123   0.0000       0.939064        25.5532 
 124   0.0000       0.964188        26.2369 
 125   0.0000       0.964188        26.2369 
 126   0.0000       1.038871        28.2691 
 127   0.0000       1.046384        28.4736 
 128   0.0000       1.046384        28.4736 
 129   0.0000       1.055348        28.7175 
 130   0.0000       1.055348        28.7175 
 131   0.0000       1.136225        30.9183 
 132   0.0000       1.145804        31.1789 
 133   0.0000       1.145804        31.1789 
 134   0.0000       1.162290        31.6275 
 135   0.0000       1.193043        32.4644 
 136   0.0000       1.194032        32.4913 
 137   0.0000       1.194032        32.4913 
 138   0.0000       1.199450        32.6387 
 139   0.0000       1.199450        32.6387 
 140   0.0000       1.270505        34.5722 
 141   0.0000       1.270505        34.5722 
 142   0.0000       1.532119        41.6911 
 143   0.0000       1.577907        42.9370 
 144   0.0000       1.577907        42.9370 
 145   0.0000       1.737370        47.2762 
 146   0.0000       1.992377        54.2153 
 147   0.0000       2.005479        54.5719 
 148   0.0000       2.005479        54.5719 
 149   0.0000       2.009727        54.6874 
 150   0.0000       2.009727        54.6874 
 151   0.0000       2.011001        54.7221 
 152   0.0000       2.011001        54.7221 
 153   0.0000       2.082230        56.6604 
 154   0.0000       2.082230        56.6604 
 155   0.0000       2.132305        58.0230 
 156   0.0000       2.132305        58.0230 
 157   0.0000       2.148859        58.4734 
 158   0.0000       2.148859        58.4734 
 159   0.0000       2.182625        59.3922 
 160   0.0000       2.182625        59.3922 
 161   0.0000       2.240878        60.9774 
 162   0.0000       2.240878        60.9774 
 163   0.0000       2.313110        62.9429 
 164   0.0000       2.313110        62.9429 
 165   0.0000       2.403041        65.3901 
 166   0.0000       2.471324        67.2481 
 167   0.0000       2.471324        67.2481 
 168   0.0000       2.549261        69.3689 
 169   0.0000       2.719383        73.9982 
 170   0.0000       2.743503        74.6545 
 171   0.0000       2.743503        74.6545 
 172   0.0000       2.781115        75.6780 
 173   0.0000       2.781115        75.6780 
 174   0.0000       2.831707        77.0547 
 175   0.0000       2.843012        77.3623 
 176   0.0000       2.843013        77.3623 
 177   0.0000       2.861438        77.8637 
 178   0.0000       2.861438        77.8637 
 179   0.0000       2.908186        79.1358 
 180   0.0000       2.909510        79.1718 
 181   0.0000       2.909510        79.1718 
 182   0.0000       2.989015        81.3352 
 183   0.0000       3.030217        82.4564 
 184   0.0000       3.030217        82.4564 
 185   0.0000       3.036796        82.6354 
 186   0.0000       3.036796        82.6354 
 187   0.0000       3.120176        84.9043 
 188   0.0000       3.120176        84.9043 
 189   0.0000       3.134205        85.2861 
 190   0.0000       3.134205        85.2861 
 191   0.0000       3.178729        86.4976 
 192   0.0000       3.533607        96.1543 
 193   0.0000       3.814873       103.8080 
 194   0.0000       3.814873       103.8080 
 195   0.0000       4.426681       120.4561 
 196   0.0000       4.426681       120.4561 
 197   0.0000       4.571160       124.3876 
 198   0.0000       4.571160       124.3876 
 199   0.0000       4.573131       124.4412 
 200   0.0000       4.573132       124.4412 
 201   0.0000       4.692439       127.6877 
 202   0.0000       4.692439       127.6877 
 203   0.0000       4.726133       128.6046 
 204   0.0000       4.726133       128.6046 
 205   0.0000       4.771220       129.8315 
 206   0.0000       4.771220       129.8315 
 207   0.0000       4.853848       132.0799 
 208   0.0000       4.853849       132.0799 
 209   0.0000       4.866585       132.4265 
 210   0.0000       5.255875       143.0196 
 211   0.0000       5.255875       143.0196 
 212   0.0000       5.267897       143.3468 
 213   0.0000       5.341812       145.3581 
 214   0.0000       5.341813       145.3581 
 215   0.0000       5.356252       145.7510 
 216   0.0000       5.356252       145.7510 
 217   0.0000       5.452166       148.3610 
 218   0.0000       5.452166       148.3610 
 219   0.0000       5.608010       152.6017 
 220   0.0000       5.608010       152.6017 
 221   0.0000       5.699760       155.0983 
 222   0.0000       5.908779       160.7860 
 223   0.0000       5.908779       160.7861 
 224   0.0000       5.962150       162.2384 
 225   0.0000       6.073826       165.2772 
 226   0.0000       6.073826       165.2772 
 227   0.0000       6.475649       176.2114 
 228   0.0000       7.241986       197.0645 
 229   0.0000       7.241986       197.0645 
 230   0.0000       7.256559       197.4610 
 231   0.0000       7.256560       197.4610 
 232   0.0000       7.299888       198.6401 
 233   0.0000       7.299889       198.6401 
 234   0.0000       7.405284       201.5080 
 235   0.0000       7.405285       201.5080 
 236   0.0000       7.423001       201.9901 
 237   0.0000       7.423001       201.9901 
 238   0.0000       7.693605       209.3536 
 239   0.0000       7.693605       209.3536 
 240   0.0000       7.703481       209.6224 
 241   0.0000       7.716494       209.9765 
 242   0.0000       7.716495       209.9765 
 243   0.0000       7.982128       217.2047 
 244   0.0000       7.982128       217.2047 
 245   0.0000       7.996490       217.5956 
 246   0.0000      10.216227       277.9977 
 247   0.0000      10.216228       277.9977 
 248   0.0000      10.236354       278.5454 
 249   0.0000      10.236354       278.5454 
 250   0.0000      10.268736       279.4265 
 251   0.0000      10.268736       279.4265 
 252   0.0000      10.292788       280.0810 
 253   0.0000      10.292788       280.0810 
 254   0.0000      10.328722       281.0588 
 255   0.0000      10.328723       281.0588 
 256   0.0000      10.329213       281.0722 
 257   0.0000      10.933970       297.5285 
 258   0.0000      10.933970       297.5285 
 259   0.0000      11.368235       309.3454 
 260   0.0000      16.065883       437.1749 
 261   0.0000      16.065886       437.1750 
 262   0.0000      16.077014       437.4778 
 263   0.0000      16.077017       437.4779 
 264   0.0000      16.122099       438.7046 
 265   0.0000      16.122099       438.7046 
 266   0.0000      16.231427       441.6796 
 267   0.0000      16.231427       441.6796 
 268   0.0000      16.406490       446.4433 
 269   0.0000      16.796302       457.0506 
 270   0.0000      21.173914       576.1715 
 271   0.0000      22.402686       609.6081 
 272   0.0000      58.842195      1601.1775 
 273   0.0000      58.842198      1601.1776 
 274   0.0000      58.847551      1601.3233 
 275   0.0000      58.847554      1601.3234 
 276   0.0000      58.872515      1602.0026 
 277   0.0000      58.872515      1602.0026 
 278   0.0000      58.940376      1603.8492 
 279   0.0000      58.940376      1603.8492 
 280   0.0000      59.116786      1608.6495 
 281   0.0000      59.241854      1612.0528 

                 SPIN DOWN ORBITALS
  NO   OCC          E(Eh)            E(eV) 
   0   1.0000     -76.306637     -2076.4092 
   1   1.0000     -76.306637     -2076.4092 
   2   1.0000      -6.325597      -172.1282 
   3   1.0000      -6.325156      -172.1162 
   4   1.0000      -4.541716      -123.5864 
   5   1.0000      -4.541716      -123.5864 
   6   1.0000      -4.541522      -123.5811 
   7   1.0000      -4.541522      -123.5811 
   8   1.0000      -4.537582      -123.4739 
   9   1.0000      -4.535400      -123.4145 
  10   1.0000      -0.621440       -16.9102 
  11   1.0000      -0.423937       -11.5359 
  12   1.0000      -0.264767        -7.2047 
  13   1.0000      -0.261977        -7.1288 
  14   1.0000      -0.261977        -7.1288 
  15   0.0000      -0.125966        -3.4277 
  16   0.0000      -0.125966        -3.4277 
  17   0.0000      -0.008657        -0.2356 
  18   0.0000      -0.003933        -0.1070 
  19   0.0000       0.012734         0.3465 
  20   0.0000       0.012734         0.3465 
  21   0.0000       0.023770         0.6468 
  22   0.0000       0.035120         0.9557 
  23   0.0000       0.035120         0.9557 
  24   0.0000       0.037999         1.0340 
  25   0.0000       0.047228         1.2851 
  26   0.0000       0.047228         1.2851 
  27   0.0000       0.072309         1.9676 
  28   0.0000       0.080042         2.1780 
  29   0.0000       0.080042         2.1780 
  30   0.0000       0.080906         2.2016 
  31   0.0000       0.104054         2.8314 
  32   0.0000       0.104054         2.8314 
  33   0.0000       0.106060         2.8860 
  34   0.0000       0.106060         2.8860 
  35   0.0000       0.109542         2.9808 
  36   0.0000       0.109542         2.9808 
  37   0.0000       0.111516         3.0345 
  38   0.0000       0.130854         3.5607 
  39   0.0000       0.169545         4.6135 
  40   0.0000       0.173646         4.7251 
  41   0.0000       0.173646         4.7251 
  42   0.0000       0.173848         4.7306 
  43   0.0000       0.173848         4.7306 
  44   0.0000       0.180447         4.9102 
  45   0.0000       0.180447         4.9102 
  46   0.0000       0.184829         5.0294 
  47   0.0000       0.184829         5.0294 
  48   0.0000       0.187087         5.0909 
  49   0.0000       0.222171         6.0456 
  50   0.0000       0.222171         6.0456 
  51   0.0000       0.229950         6.2572 
  52   0.0000       0.229950         6.2572 
  53   0.0000       0.257700         7.0124 
  54   0.0000       0.258600         7.0369 
  55   0.0000       0.258689         7.0393 
  56   0.0000       0.258689         7.0393 
  57   0.0000       0.283670         7.7191 
  58   0.0000       0.283670         7.7191 
  59   0.0000       0.290930         7.9166 
  60   0.0000       0.305363         8.3093 
  61   0.0000       0.305363         8.3093 
  62   0.0000       0.333511         9.0753 
  63   0.0000       0.333511         9.0753 
  64   0.0000       0.341618         9.2959 
  65   0.0000       0.341618         9.2959 
  66   0.0000       0.363015         9.8781 
  67   0.0000       0.363015         9.8781 
  68   0.0000       0.382344        10.4041 
  69   0.0000       0.396117        10.7789 
  70   0.0000       0.401973        10.9382 
  71   0.0000       0.401973        10.9382 
  72   0.0000       0.413733        11.2582 
  73   0.0000       0.413733        11.2582 
  74   0.0000       0.413849        11.2614 
  75   0.0000       0.413849        11.2614 
  76   0.0000       0.418972        11.4008 
  77   0.0000       0.418972        11.4008 
  78   0.0000       0.451749        12.2927 
  79   0.0000       0.451749        12.2927 
  80   0.0000       0.461807        12.5664 
  81   0.0000       0.465682        12.6718 
  82   0.0000       0.465682        12.6718 
  83   0.0000       0.467673        12.7260 
  84   0.0000       0.467673        12.7260 
  85   0.0000       0.475241        12.9320 
  86   0.0000       0.475242        12.9320 
  87   0.0000       0.514967        14.0130 
  88   0.0000       0.515131        14.0174 
  89   0.0000       0.515131        14.0174 
  90   0.0000       0.518813        14.1176 
  91   0.0000       0.539712        14.6863 
  92   0.0000       0.539712        14.6863 
  93   0.0000       0.540359        14.7039 
  94   0.0000       0.540359        14.7039 
  95   0.0000       0.563707        15.3392 
  96   0.0000       0.563707        15.3392 
  97   0.0000       0.568658        15.4740 
  98   0.0000       0.568658        15.4740 
  99   0.0000       0.597468        16.2579 
 100   0.0000       0.597468        16.2579 
 101   0.0000       0.604497        16.4492 
 102   0.0000       0.608912        16.5693 
 103   0.0000       0.608912        16.5693 
 104   0.0000       0.688029        18.7222 
 105   0.0000       0.695968        18.9382 
 106   0.0000       0.695968        18.9382 
 107   0.0000       0.705120        19.1873 
 108   0.0000       0.705120        19.1873 
 109   0.0000       0.706399        19.2221 
 110   0.0000       0.706399        19.2221 
 111   0.0000       0.719287        19.5728 
 112   0.0000       0.719287        19.5728 
 113   0.0000       0.749976        20.4079 
 114   0.0000       0.778882        21.1945 
 115   0.0000       0.778882        21.1945 
 116   0.0000       0.783163        21.3109 
 117   0.0000       0.823300        22.4031 
 118   0.0000       0.861115        23.4321 
 119   0.0000       0.861115        23.4321 
 120   0.0000       0.904395        24.6098 
 121   0.0000       0.904395        24.6098 
 122   0.0000       0.939064        25.5532 
 123   0.0000       0.939064        25.5532 
 124   0.0000       0.964188        26.2369 
 125   0.0000       0.964188        26.2369 
 126   0.0000       1.038871        28.2691 
 127   0.0000       1.046384        28.4736 
 128   0.0000       1.046384        28.4736 
 129   0.0000       1.055348        28.7175 
 130   0.0000       1.055348        28.7175 
 131   0.0000       1.136225        30.9183 
 132   0.0000       1.145804        31.1789 
 133   0.0000       1.145804        31.1789 
 134   0.0000       1.162290        31.6275 
 135   0.0000       1.193043        32.4644 
 136   0.0000       1.194032        32.4913 
 137   0.0000       1.194032        32.4913 
 138   0.0000       1.199450        32.6387 
 139   0.0000       1.199450        32.6387 
 140   0.0000       1.270505        34.5722 
 141   0.0000       1.270505        34.5722 
 142   0.0000       1.532119        41.6911 
 143   0.0000       1.577907        42.9370 
 144   0.0000       1.577907        42.9370 
 145   0.0000       1.737370        47.2762 
 146   0.0000       1.992377        54.2153 
 147   0.0000       2.005479        54.5719 
 148   0.0000       2.005479        54.5719 
 149   0.0000       2.009727        54.6874 
 150   0.0000       2.009727        54.6874 
 151   0.0000       2.011001        54.7221 
 152   0.0000       2.011001        54.7221 
 153   0.0000       2.082230        56.6604 
 154   0.0000       2.082230        56.6604 
 155   0.0000       2.132305        58.0230 
 156   0.0000       2.132305        58.0230 
 157   0.0000       2.148859        58.4734 
 158   0.0000       2.148859        58.4734 
 159   0.0000       2.182625        59.3922 
 160   0.0000       2.182625        59.3922 
 161   0.0000       2.240878        60.9774 
 162   0.0000       2.240878        60.9774 
 163   0.0000       2.313110        62.9429 
 164   0.0000       2.313110        62.9429 
 165   0.0000       2.403041        65.3901 
 166   0.0000       2.471324        67.2481 
 167   0.0000       2.471324        67.2481 
 168   0.0000       2.549261        69.3689 
 169   0.0000       2.719383        73.9982 
 170   0.0000       2.743503        74.6545 
 171   0.0000       2.743503        74.6545 
 172   0.0000       2.781115        75.6780 
 173   0.0000       2.781115        75.6780 
 174   0.0000       2.831707        77.0547 
 175   0.0000       2.843012        77.3623 
 176   0.0000       2.843013        77.3623 
 177   0.0000       2.861438        77.8637 
 178   0.0000       2.861438        77.8637 
 179   0.0000       2.908186        79.1358 
 180   0.0000       2.909510        79.1718 
 181   0.0000       2.909510        79.1718 
 182   0.0000       2.989015        81.3352 
 183   0.0000       3.030217        82.4564 
 184   0.0000       3.030217        82.4564 
 185   0.0000       3.036796        82.6354 
 186   0.0000       3.036796        82.6354 
 187   0.0000       3.120176        84.9043 
 188   0.0000       3.120176        84.9043 
 189   0.0000       3.134205        85.2861 
 190   0.0000       3.134205        85.2861 
 191   0.0000       3.178729        86.4976 
 192   0.0000       3.533607        96.1543 
 193   0.0000       3.814873       103.8080 
 194   0.0000       3.814873       103.8080 
 195   0.0000       4.426681       120.4561 
 196   0.0000       4.426681       120.4561 
 197   0.0000       4.571160       124.3876 
 198   0.0000       4.571160       124.3876 
 199   0.0000       4.573131       124.4412 
 200   0.0000       4.573132       124.4412 
 201   0.0000       4.692439       127.6877 
 202   0.0000       4.692439       127.6877 
 203   0.0000       4.726133       128.6046 
 204   0.0000       4.726133       128.6046 
 205   0.0000       4.771220       129.8315 
 206   0.0000       4.771220       129.8315 
 207   0.0000       4.853848       132.0799 
 208   0.0000       4.853849       132.0799 
 209   0.0000       4.866585       132.4265 
 210   0.0000       5.255875       143.0196 
 211   0.0000       5.255875       143.0196 
 212   0.0000       5.267897       143.3468 
 213   0.0000       5.341812       145.3581 
 214   0.0000       5.341813       145.3581 
 215   0.0000       5.356252       145.7510 
 216   0.0000       5.356252       145.7510 
 217   0.0000       5.452166       148.3610 
 218   0.0000       5.452166       148.3610 
 219   0.0000       5.608010       152.6017 
 220   0.0000       5.608010       152.6017 
 221   0.0000       5.699760       155.0983 
 222   0.0000       5.908779       160.7860 
 223   0.0000       5.908779       160.7861 
 224   0.0000       5.962150       162.2384 
 225   0.0000       6.073826       165.2772 
 226   0.0000       6.073826       165.2772 
 227   0.0000       6.475649       176.2114 
 228   0.0000       7.241986       197.0645 
 229   0.0000       7.241986       197.0645 
 230   0.0000       7.256559       197.4610 
 231   0.0000       7.256560       197.4610 
 232   0.0000       7.299888       198.6401 
 233   0.0000       7.299889       198.6401 
 234   0.0000       7.405284       201.5080 
 235   0.0000       7.405285       201.5080 
 236   0.0000       7.423001       201.9901 
 237   0.0000       7.423001       201.9901 
 238   0.0000       7.693605       209.3536 
 239   0.0000       7.693605       209.3536 
 240   0.0000       7.703481       209.6224 
 241   0.0000       7.716494       209.9765 
 242   0.0000       7.716495       209.9765 
 243   0.0000       7.982128       217.2047 
 244   0.0000       7.982128       217.2047 
 245   0.0000       7.996490       217.5956 
 246   0.0000      10.216227       277.9977 
 247   0.0000      10.216228       277.9977 
 248   0.0000      10.236354       278.5454 
 249   0.0000      10.236354       278.5454 
 250   0.0000      10.268736       279.4265 
 251   0.0000      10.268736       279.4265 
 252   0.0000      10.292788       280.0810 
 253   0.0000      10.292788       280.0810 
 254   0.0000      10.328722       281.0588 
 255   0.0000      10.328723       281.0588 
 256   0.0000      10.329213       281.0722 
 257   0.0000      10.933970       297.5285 
 258   0.0000      10.933970       297.5285 
 259   0.0000      11.368235       309.3454 
 260   0.0000      16.065883       437.1749 
 261   0.0000      16.065886       437.1750 
 262   0.0000      16.077014       437.4778 
 263   0.0000      16.077017       437.4779 
 264   0.0000      16.122099       438.7046 
 265   0.0000      16.122099       438.7046 
 266   0.0000      16.231427       441.6796 
 267   0.0000      16.231427       441.6796 
 268   0.0000      16.406490       446.4433 
 269   0.0000      16.796302       457.0506 
 270   0.0000      21.173914       576.1715 
 271   0.0000      22.402686       609.6081 
 272   0.0000      58.842195      1601.1775 
 273   0.0000      58.842198      1601.1776 
 274   0.0000      58.847551      1601.3233 
 275   0.0000      58.847554      1601.3234 
 276   0.0000      58.872515      1602.0026 
 277   0.0000      58.872515      1602.0026 
 278   0.0000      58.940376      1603.8492 
 279   0.0000      58.940376      1603.8492 
 280   0.0000      59.116786      1608.6495 
 281   0.0000      59.241854      1612.0528 

                    ********************************
                    * MULLIKEN POPULATION ANALYSIS *
                    ********************************

--------------------------------------------
MULLIKEN ATOMIC CHARGES AND SPIN POPULATIONS
--------------------------------------------
   0 P :    0.000007    0.000000
   1 P :   -0.000007   -0.000000
Sum of atomic charges         :   -0.0000000
Sum of atomic spin populations:   -0.0000000

-----------------------------------------------------
MULLIKEN REDUCED ORBITAL CHARGES AND SPIN POPULATIONS
-----------------------------------------------------
CHARGE
  0 P s       :     5.895936  s :     5.895936
      pz      :     3.073984  p :     8.982808
      px      :     2.954412
      py      :     2.954412
      dz2     :     0.030482  d :     0.108953
      dxz     :     0.039236
      dyz     :     0.039236
      dx2y2   :     0.000000
      dxy     :     0.000000
      f0      :     0.000359  f :     0.011722
      f+1     :     0.005682
      f-1     :     0.005682
      f+2     :     0.000000
      f-2     :     0.000000
      f+3     :     0.000000
      f-3     :     0.000000
      g0      :    -0.000647  g :     0.000734
      g+1     :     0.000690
      g-1     :     0.000690
      g+2     :     0.000000
      g-2     :     0.000000
      g+3     :     0.000000
      g-3     :     0.000000
      g+4     :     0.000000
      g-4     :     0.000000
      h0      :    -0.000122  h :    -0.000160
      h+1     :    -0.000019
      h-1     :    -0.000019
      h+2     :     0.000000
      h-2     :     0.000000
      h+3     :     0.000000
      h-3     :     0.000000
      h+4     :     0.000000
      h-4     :     0.000000
      h+5     :     0.000000
      h-5     :     0.000000
  1 P s       :     5.895967  s :     5.895967
      pz      :     3.073969  p :     8.982793
      px      :     2.954412
      py      :     2.954412
      dz2     :     0.030482  d :     0.108953
      dxz     :     0.039236
      dyz     :     0.039236
      dx2y2   :    -0.000000
      dxy     :     0.000000
      f0      :     0.000358  f :     0.011721
      f+1     :     0.005682
      f-1     :     0.005682
      f+2     :    -0.000000
      f-2     :     0.000000
      f+3     :     0.000000
      f-3     :     0.000000
      g0      :    -0.000647  g :     0.000733
      g+1     :     0.000690
      g-1     :     0.000690
      g+2     :     0.000000
      g-2     :     0.000000
      g+3     :     0.000000
      g-3     :     0.000000
      g+4     :     0.000000
      g-4     :    -0.000000
      h0      :    -0.000122  h :    -0.000160
      h+1     :    -0.000019
      h-1     :    -0.000019
      h+2     :     0.000000
      h-2     :    -0.000000
      h+3     :     0.000000
      h-3     :     0.000000
      h+4     :     0.000000
      h-4     :     0.000000
      h+5     :     0.000000
      h-5     :     0.000000

SPIN
  0 P s       :     0.000000  s :     0.000000
      pz      :     0.000000  p :     0.000000
      px      :     0.000000
      py      :    -0.000000
      dz2     :     0.000000  d :     0.000000
      dxz     :     0.000000
      dyz     :    -0.000000
      dx2y2   :    -0.000000
      dxy     :    -0.000000
      f0      :    -0.000000  f :    -0.000000
      f+1     :     0.000000
      f-1     :    -0.000000
      f+2     :     0.000000
      f-2     :    -0.000000
      f+3     :     0.000000
      f-3     :     0.000000
      g0      :    -0.000000  g :    -0.000000
      g+1     :     0.000000
      g-1     :    -0.000000
      g+2     :    -0.000000
      g-2     :     0.000000
      g+3     :     0.000000
      g-3     :    -0.000000
      g+4     :     0.000000
      g-4     :     0.000000
      h0      :    -0.000000  h :    -0.000000
      h+1     :     0.000000
      h-1     :    -0.000000
      h+2     :    -0.000000
      h-2     :    -0.000000
      h+3     :     0.000000
      h-3     :    -0.000000
      h+4     :     0.000000
      h-4     :     0.000000
      h+5     :    -0.000000
      h-5     :     0.000000
  1 P s       :    -0.000000  s :    -0.000000
      pz      :     0.000000  p :     0.000000
      px      :    -0.000000
      py      :     0.000000
      dz2     :    -0.000000  d :    -0.000000
      dxz     :    -0.000000
      dyz     :     0.000000
      dx2y2   :    -0.000000
      dxy     :    -0.000000
      f0      :    -0.000000  f :    -0.000000
      f+1     :    -0.000000
      f-1     :     0.000000
      f+2     :     0.000000
      f-2     :     0.000000
      f+3     :     0.000000
      f-3     :    -0.000000
      g0      :    -0.000000  g :    -0.000000
      g+1     :    -0.000000
      g-1     :     0.000000
      g+2     :     0.000000
      g-2     :     0.000000
      g+3     :    -0.000000
      g-3     :     0.000000
      g+4     :    -0.000000
      g-4     :     0.000000
      h0      :    -0.000000  h :    -0.000000
      h+1     :    -0.000000
      h-1     :     0.000000
      h+2     :     0.000000
      h-2     :     0.000000
      h+3     :    -0.000000
      h-3     :     0.000000
      h+4     :    -0.000000
      h-4     :     0.000000
      h+5     :     0.000000
      h-5     :     0.000000


                     *******************************
                     * LOEWDIN POPULATION ANALYSIS *
                     *******************************

-------------------------------------------
LOEWDIN ATOMIC CHARGES AND SPIN POPULATIONS
-------------------------------------------
   0 P :    0.000000    0.000000
   1 P :   -0.000000   -0.000000

----------------------------------------------------
LOEWDIN REDUCED ORBITAL CHARGES AND SPIN POPULATIONS
----------------------------------------------------
CHARGE
  0 P s       :     5.324947  s :     5.324947
      pz      :     3.285355  p :     8.975060
      px      :     2.844853
      py      :     2.844853
      dz2     :     0.240578  d :     0.431491
      dxz     :     0.095457
      dyz     :     0.095457
      dx2y2   :     0.000000
      dxy     :     0.000000
      f0      :     0.095698  f :     0.167890
      f+1     :     0.036096
      f-1     :     0.036096
      f+2     :     0.000000
      f-2     :     0.000000
      f+3     :     0.000000
      f-3     :     0.000000
      g0      :     0.039973  g :     0.071298
      g+1     :     0.015663
      g-1     :     0.015663
      g+2     :     0.000000
      g-2     :     0.000000
      g+3     :     0.000000
      g-3     :     0.000000
      g+4     :     0.000000
      g-4     :     0.000000
      h0      :     0.013449  h :     0.029314
      h+1     :     0.007932
      h-1     :     0.007932
      h+2     :     0.000000
      h-2     :     0.000000
      h+3     :     0.000000
      h-3     :     0.000000
      h+4     :     0.000000
      h-4     :     0.000000
      h+5     :     0.000000
      h-5     :     0.000000
  1 P s       :     5.324947  s :     5.324947
      pz      :     3.285355  p :     8.975060
      px      :     2.844853
      py      :     2.844853
      dz2     :     0.240578  d :     0.431491
      dxz     :     0.095457
      dyz     :     0.095457
      dx2y2   :     0.000000
      dxy     :     0.000000
      f0      :     0.095698  f :     0.167890
      f+1     :     0.036096
      f-1     :     0.036096
      f+2     :     0.000000
      f-2     :     0.000000
      f+3     :     0.000000
      f-3     :     0.000000
      g0      :     0.039973  g :     0.071298
      g+1     :     0.015663
      g-1     :     0.015663
      g+2     :     0.000000
      g-2     :     0.000000
      g+3     :     0.000000
      g-3     :     0.000000
      g+4     :     0.000000
      g-4     :     0.000000
      h0      :     0.013449  h :     0.029314
      h+1     :     0.007932
      h-1     :     0.007932
      h+2     :     0.000000
      h-2     :     0.000000
      h+3     :     0.000000
      h-3     :     0.000000
      h+4     :     0.000000
      h-4     :     0.000000
      h+5     :     0.000000
      h-5     :     0.000000

SPIN
  0 P s       :     0.000000  s :     0.000000
      pz      :     0.000000  p :     0.000000
      px      :     0.000000
      py      :     0.000000
      dz2     :     0.000000  d :     0.000000
      dxz     :     0.000000
      dyz     :    -0.000000
      dx2y2   :    -0.000000
      dxy     :    -0.000000
      f0      :    -0.000000  f :    -0.000000
      f+1     :     0.000000
      f-1     :    -0.000000
      f+2     :     0.000000
      f-2     :     0.000000
      f+3     :     0.000000
      f-3     :     0.000000
      g0      :     0.000000  g :     0.000000
      g+1     :     0.000000
      g-1     :    -0.000000
      g+2     :    -0.000000
      g-2     :     0.000000
      g+3     :     0.000000
      g-3     :     0.000000
      g+4     :     0.000000
      g-4     :     0.000000
      h0      :    -0.000000  h :    -0.000000
      h+1     :    -0.000000
      h-1     :    -0.000000
      h+2     :     0.000000
      h-2     :    -0.000000
      h+3     :    -0.000000
      h-3     :    -0.000000
      h+4     :     0.000000
      h-4     :     0.000000
      h+5     :    -0.000000
      h-5     :     0.000000
  1 P s       :    -0.000000  s :    -0.000000
      pz      :     0.000000  p :     0.000000
      px      :    -0.000000
      py      :    -0.000000
      dz2     :    -0.000000  d :    -0.000000
      dxz     :    -0.000000
      dyz     :     0.000000
      dx2y2   :    -0.000000
      dxy     :    -0.000000
      f0      :    -0.000000  f :     0.000000
      f+1     :     0.000000
      f-1     :     0.000000
      f+2     :    -0.000000
      f-2     :    -0.000000
      f+3     :     0.000000
      f-3     :    -0.000000
      g0      :    -0.000000  g :    -0.000000
      g+1     :    -0.000000
      g-1     :     0.000000
      g+2     :     0.000000
      g-2     :    -0.000000
      g+3     :    -0.000000
      g-3     :     0.000000
      g+4     :    -0.000000
      g-4     :     0.000000
      h0      :     0.000000  h :     0.000000
      h+1     :     0.000000
      h-1     :     0.000000
      h+2     :     0.000000
      h-2     :    -0.000000
      h+3     :    -0.000000
      h-3     :    -0.000000
      h+4     :    -0.000000
      h-4     :     0.000000
      h+5     :     0.000000
      h-5     :     0.000000


                      *****************************
                      * MAYER POPULATION ANALYSIS *
                      *****************************

  NA   - Mulliken gross atomic population
  ZA   - Total nuclear charge
  QA   - Mulliken gross atomic charge
  VA   - Mayer's total valence
  BVA  - Mayer's bonded valence
  FA   - Mayer's free valence

  ATOM       NA         ZA         QA         VA         BVA        FA
  0 P     15.0000    15.0000     0.0000     2.8262     2.8262    -0.0000
  1 P     15.0000    15.0000    -0.0000     2.8262     2.8262    -0.0000

  Mayer bond orders larger than 0.1
B(  0-P ,  1-P ) :   2.8262 

-------
TIMINGS
-------

Total SCF time: 0 days 0 hours 36 min 38 sec 

Total time                  ....    2198.687 sec
Sum of individual times     ....    2198.113 sec  (100.0%)

Fock matrix formation       ....    2192.571 sec  ( 99.7%)
  XC integration            ....      52.065 sec  (  2.4% of F)
    Basis function eval.    ....       5.351 sec  ( 10.3% of XC)
    Density eval.           ....      11.139 sec  ( 21.4% of XC)
    XC-Functional eval.     ....       0.778 sec  (  1.5% of XC)
    XC-Potential eval.      ....      34.249 sec  ( 65.8% of XC)
Diagonalization             ....       0.576 sec  (  0.0%)
Density matrix formation    ....       0.017 sec  (  0.0%)
Population analysis         ....       0.060 sec  (  0.0%)
Initial guess               ....       2.567 sec  (  0.1%)
Orbital Transformation      ....       0.000 sec  (  0.0%)
Orbital Orthonormalization  ....       0.000 sec  (  0.0%)
DIIS solution               ....       0.289 sec  (  0.0%)
Grid generation             ....       2.033 sec  (  0.1%)

-------------------------   --------------------
FINAL SINGLE POINT ENERGY      -682.424987571342
-------------------------   --------------------


                            ***************************************
                            *     ORCA property calculations      *
                            ***************************************

                                    ---------------------
                                    Active property flags
                                    ---------------------
   (+) Dipole Moment
   (+) Polarizability


------------------------------------------------------------------------------
                       ORCA ELECTRIC PROPERTIES CALCULATION
------------------------------------------------------------------------------

Dipole Moment Calculation                       ... on
Quadrupole Moment Calculation                   ... off
Polarizability Calculation                      ... Analytic (CP-SCF)
GBWName                                         ... p2_pbe.gbw
Electron density file                           ... p2_pbe.scfp.tmp
The origin for moment calculation is the CENTER OF MASS  = ( 0.000000,  0.000000  1.789004)

-------------
DIPOLE MOMENT
-------------
                                X             Y             Z
Electronic contribution:     -0.00000       0.00000      -0.00000
Nuclear contribution   :      0.00000       0.00000       0.00000
                        -----------------------------------------
Total Dipole Moment    :     -0.00000       0.00000      -0.00000
                        -----------------------------------------
Magnitude (a.u.)       :      0.00000
Magnitude (Debye)      :      0.00000



--------------------
Rotational spectrum 
--------------------
 
Rotational constants in cm-1:     0.000000     0.303630     0.303630 
Rotational constants in MHz :     0.000000  9102.602123  9102.602123 

 Dipole components along the rotational axes: 
x,y,z [a.u.] :    -0.000001     0.000000    -0.000000 
x,y,z [Debye]:    -0.000001     0.000000    -0.000000 

 
Transforming and storing MO dipole integrals   ... done

                ... starting polarizability calculation

Opening the Dipole integral file               ... (p2_pbe.dmo.tmp) done
Reading Dipole-MO integrals                    ... done
Solving CP-SCF equations                       ... 
------------------------------------------------------------------------------
                           ORCA CP-SCF CALCULATION
------------------------------------------------------------------------------

Input orbitals are from        ... p2_pbe.gbw
Input Perturbation             ... p2_pbe.cpv.tmp
Wavefunction output            ... p2_pbe.cpu.tmp
Perturbation mode              ... Real perturbation (singlet)
Solver                         ... POPLE
Max. number of iterations      ... 200
Convergence tolerance          ... 1.000e-06
Integral handling              ... Direct
Number of perturbations        ... 3
Number of operators            ... 2
Orbital ranges used for CP-SCF:
 Operator 0:  Orbitals   0... 14  to  15...281
 Operator 1:  Orbitals   0... 14  to  15...281
DFT calculation                         ... on
Exchange functional (SCF)               ... PBE
Exchange functional (CP-SCF)            ... PBE
   PBE kappa parameter  XKappa (SCF)    ...  0.804000
   PBE kappa parameter  XKappa (CP-SCF) ...  0.804000
   PBE mue parameter   XMuePBE (SCF)    ...  0.219520
   PBE mue parameter   XMuePBE (CP-SCF) ...  0.219520
Correlation functional (SCF)            ... PBE
Correlation functional (CP-SCF)         ... PBE
   PBE beta parameter CBetaPBE (SCF)    ...  0.066725
   PBE beta parameter CBetaPBE (CP-SCF) ...  0.066725
 LDA part of GGA corr.  LDAOpt (SCF)    ... PW91-LDA
 LDA part of GGA corr.  LDAOpt (CP-SCF) ... PW91-LDA
Variables per vector in CP-SCF ... 8010
Number of vectors sought       ... 3
Recalculating density on grid  ... done
Calculating the xc-kernel      ... done
     CP-SCF ITERATION   0: 
     CP-SCF ITERATION   1:      0.502638436031
     CP-SCF ITERATION   2:      0.003923506716
     CP-SCF ITERATION   3:      0.000011219951
     CP-SCF ITERATION   4:      0.000000643649
done
Reading CP-SCF coefficients                    ... done
Doing the polarizability tensor   ... done
Cleaning up                                    ... done

-------------------------
THE POLARIZABILITY TENSOR
-------------------------

The raw cartesian tensor (atomic units):
   41.10410     -0.00000      0.00000  
   -0.00000     41.10410     -0.00000  
    0.00000     -0.00000     70.30046  
diagonalized tensor: 
   41.10410     41.10410     70.30046  

    0.80222      0.59703      0.00000  
    0.59703     -0.80222     -0.00000  
    0.00000     -0.00000      1.00000  

Isotropic polarizability :  50.83622


Timings for individual modules:

Sum of individual times         ...     3297.108 sec (=  54.952 min)
GTO integral calculation        ...        1.681 sec (=   0.028 min)   0.1 %
SCF iterations                  ...     2198.719 sec (=  36.645 min)  66.7 %
Solution of CP-SCF eqns.        ...     1096.708 sec (=  18.278 min)  33.3 %
                             ****ORCA TERMINATED NORMALLY****
TOTAL RUN TIME: 0 days 0 hours 54 minutes 57 seconds 521 msec
