
                                 *****************
                                 * O   R   C   A *
                                 *****************

           --- An Ab Initio, DFT and Semiempirical electronic structure package ---

                  #######################################################
                  #                        -***-                        #
                  #          Department of theory and spectroscopy      #
                  #               Directorship: Frank Neese             #
                  #        Max Planck Institute fuer Kohlenforschung    #
                  #                Kaiser Wilhelm Platz 1               #
                  #                 D-45470 Muelheim/Ruhr               #
                  #                      Germany                        #
                  #                                                     #
                  #                  All rights reserved                #
                  #                        -***-                        #
                  #######################################################


                         Program Version 4.1.2  - RELEASE  -


 With contributions from (in alphabetic order):
   Daniel Aravena         : Magnetic Properties
   Michael Atanasov       : Ab Initio Ligand Field Theory
   Alexander A. Auer      : GIAO ZORA
   Ute Becker             : Parallelization
   Giovanni Bistoni       : ED, Open-shell LED
   Martin Brehm           : Molecular dynamics
   Dmytro Bykov           : SCF Hessian
   Vijay G. Chilkuri      : MRCI spin determinant printing
   Dipayan Datta          : RHF DLPNO-CCSD density
   Achintya Kumar Dutta   : EOM-CC, STEOM-CC
   Dmitry Ganyushin       : Spin-Orbit,Spin-Spin,Magnetic field MRCI
   Miquel Garcia          : C-PCM Hessian
   Yang Guo               : DLPNO-NEVPT2, CIM, IAO-localization
   Andreas Hansen         : Spin unrestricted coupled pair/coupled cluster methods
   Benjamin Helmich-Paris : CASSCF linear response (MC-RPA)
   Lee Huntington         : MR-EOM, pCC
   Robert Izsak           : Overlap fitted RIJCOSX, COSX-SCS-MP3, EOM
   Christian Kollmar      : KDIIS, OOCD, Brueckner-CCSD(T), CCSD density
   Simone Kossmann        : Meta GGA functionals, TD-DFT gradient, OOMP2, MP2 Hessian
   Martin Krupicka        : AUTO-CI
   Lucas Lang             : DCDCAS
   Dagmar Lenk            : GEPOL surface, SMD
   Dimitrios Liakos       : Extrapolation schemes; parallel MDCI
   Dimitrios Manganas     : ROCIS; embedding schemes
   Dimitrios Pantazis     : SARC Basis sets
   Taras Petrenko         : DFT Hessian,TD-DFT gradient, ASA, ECA, R-Raman, ABS, FL, XAS/XES, NRVS
   Peter Pinski           : DLPNO-MP2, DLPNO-MP2 Gradient
   Christoph Reimann      : Effective Core Potentials
   Marius Retegan         : Local ZFS, SOC
   Christoph Riplinger    : Optimizer, TS searches, QM/MM, DLPNO-CCSD(T), (RO)-DLPNO pert. Triples
   Tobias Risthaus        : Range-separated hybrids, TD-DFT gradient, RPA, STAB
   Michael Roemelt        : Restricted open shell CIS
   Masaaki Saitow         : Open-shell DLPNO
   Barbara Sandhoefer     : DKH picture change effects
   Avijit Sen             : IP-ROCIS
   Kantharuban Sivalingam : CASSCF convergence, NEVPT2, FIC-MRCI
   Bernardo de Souza      : ESD, SOC TD-DFT
   Georgi Stoychev        : AutoAux, RI-MP2 NMR
   Willem Van den Heuvel  : Paramagnetic NMR
   Boris Wezisla          : Elementary symmetry handling
   Frank Wennmohs         : Technical directorship


 We gratefully acknowledge several colleagues who have allowed us to
 interface, adapt or use parts of their codes:
   Stefan Grimme, W. Hujo, H. Kruse,             : VdW corrections, initial TS optimization,
                  C. Bannwarth                     DFT functionals, gCP, sTDA/sTD-DF
   Ed Valeev                                     : LibInt (2-el integral package), F12 methods
   Garnet Chan, S. Sharma, J. Yang, R. Olivares  : DMRG
   Ulf Ekstrom                                   : XCFun DFT Library
   Mihaly Kallay                                 : mrcc  (arbitrary order and MRCC methods)
   Andreas Klamt, Michael Diedenhofen            : otool_cosmo (COSMO solvation model)
   Jiri Pittner, Ondrej Demel                    : Mk-CCSD
   Frank Weinhold                                : gennbo (NPA and NBO analysis)
   Christopher J. Cramer and Donald G. Truhlar   : smd solvation model
   Lars Goerigk                                  : TD-DFT with DH, B97 family of functionals
   V. Asgeirsson, H. Jonsson                     : NEB implementation
   FAccTs GmbH                                   : IRC, NEB, NEB-TS, Multilevel


 Your calculation uses the libint2 library for the computation of 2-el integrals
 For citations please refer to: http://libint.valeyev.net

 This ORCA versions uses:
   CBLAS   interface :  Fast vector & matrix operations
   LAPACKE interface :  Fast linear algebra routines
   SCALAPACK package :  Parallel linear algebra routines


----- Orbital basis set information -----
Your calculation utilizes the basis: aug-pc-4
   H, C-F              : F. Jensen, J. Chem. Phys. 115, 9113 (2001).
                         F. Jensen, J. Chem. Phys. 116, 7372 (2002).
                         F. Jensen, J. Chem. Phys. 117, 9234 (2002).
   Si-Cl               : F. Jensen, T. Helgaker, J. Chem. Phys. 121, 3463 (2004).
   He-B, Ne-Mg, Al, Ar : F. Jensen, J. Phys. Chem. A 111, 11198 (2007).
   K, Ca, Ga-Kr        : F. Jensen, J. Chem. Phys. 136, 094110 (2012).
   Sc-Zn               : F. Jensen, J. Chem. Phys. 138, 014107 (2013).

================================================================================
                                        WARNINGS
                       Please study these warnings very carefully!
================================================================================


INFO   : the flag for use of LIBINT has been found!

================================================================================
                                       INPUT FILE
================================================================================
NAME = p_pbe.inp
|  1> !uks pbe nori aug-pc-4 grid7 nofinalgrid verytightscf
|  2> 
|  3> %maxcore 1500
|  4> 
|  5> %pal nprocs 1 end
|  6> 
|  7> %scf
|  8> 	maxiter 200
|  9> end
| 10> %elprop
| 11> 	dipole true
| 12> 	 polar 1
| 13> 	 maxiter 200
| 14> end
| 15> 
| 16> * xyz 0 4
| 17> P 0.0 0.0 0.0
| 18> *
| 19> 
| 20>                          ****END OF INPUT****
================================================================================

                       ****************************
                       * Single Point Calculation *
                       ****************************

---------------------------------
CARTESIAN COORDINATES (ANGSTROEM)
---------------------------------
  P      0.000000    0.000000    0.000000

----------------------------
CARTESIAN COORDINATES (A.U.)
----------------------------
  NO LB      ZA    FRAG     MASS         X           Y           Z
   0 P    15.0000    0    30.974    0.000000    0.000000    0.000000

--------------------------------
INTERNAL COORDINATES (ANGSTROEM)
--------------------------------
 P      0   0   0     0.000000000000     0.00000000     0.00000000

---------------------------
INTERNAL COORDINATES (A.U.)
---------------------------
 P      0   0   0     0.000000000000     0.00000000     0.00000000

---------------------
BASIS SET INFORMATION
---------------------
There are 1 groups of distinct atoms

 Group   1 Type P   : 44s27p7d4f3g2h contracted to 8s7p7d4f3g2h pattern {15121211111/111111111/1111111/1111/111/11}

Atom   0P    basis set group =>   1
------------------------------------------------------------------------------
                           ORCA GTO INTEGRAL CALCULATION
------------------------------------------------------------------------------

                         BASIS SET STATISTICS AND STARTUP INFO

 # of primitive gaussian shells          ...   87
 # of primitive gaussian functions       ...  237
 # of contracted shells                  ...   31
 # of contracted basis functions         ...  141
 Highest angular momentum                ...    5
 Maximum contraction depth               ...   15
 Integral package used                   ... LIBINT
 Integral threshhold            Thresh   ...  1.000e-12
 Primitive cut-off              TCut     ...  1.000e-14


------------------------------ INTEGRAL EVALUATION ----------------------------


 * One electron integrals 
 Pre-screening matrix                    ... done
 Shell pair data                         ... done (   0.000 sec)

-------------------------------------------------------------------------------
                                 ORCA SCF
-------------------------------------------------------------------------------

------------
SCF SETTINGS
------------
Hamiltonian:
 Density Functional     Method          .... DFT(GTOs)
 Exchange Functional    Exchange        .... PBE
   PBE kappa parameter   XKappa         ....  0.804000
   PBE mue parameter    XMuePBE         ....  0.219520
 Correlation Functional Correlation     .... PBE
   PBE beta parameter  CBetaPBE         ....  0.066725
 LDA part of GGA corr.  LDAOpt          .... PW91-LDA
 Gradients option       PostSCFGGA      .... off
   Density functional embedding theory  .... OFF
   NL short-range parameter             ....  6.400000


General Settings:
 Integral files         IntName         .... p_pbe
 Hartree-Fock type      HFTyp           .... UHF
 Total Charge           Charge          ....    0
 Multiplicity           Mult            ....    4
 Number of Electrons    NEL             ....   15
 Basis Dimension        Dim             ....  141
 Nuclear Repulsion      ENuc            ....      0.0000000000 Eh

Convergence Acceleration:
 DIIS                   CNVDIIS         .... on
   Start iteration      DIISMaxIt       ....    12
   Startup error        DIISStart       ....  0.200000
   # of expansion vecs  DIISMaxEq       ....     5
   Bias factor          DIISBfac        ....   1.050
   Max. coefficient     DIISMaxC        ....  10.000
 Newton-Raphson         CNVNR           .... off
 SOSCF                  CNVSOSCF        .... off
 Level Shifting         CNVShift        .... on
   Level shift para.    LevelShift      ....    0.2500
   Turn off err/grad.   ShiftErr        ....    0.0010
 Zerner damping         CNVZerner       .... off
 Static damping         CNVDamp         .... on
   Fraction old density DampFac         ....    0.7000
   Max. Damping (<1)    DampMax         ....    0.9800
   Min. Damping (>=0)   DampMin         ....    0.0000
   Turn off err/grad.   DampErr         ....    0.1000
 Fernandez-Rico         CNVRico         .... off

SCF Procedure:
 Maximum # iterations   MaxIter         ....   200
 SCF integral mode      SCFMode         .... Direct
   Integral package                     .... LIBINT
 Reset frequency        DirectResetFreq ....    20
 Integral Threshold     Thresh          ....  1.000e-12 Eh
 Primitive CutOff       TCut            ....  1.000e-14 Eh

Convergence Tolerance:
 Convergence Check Mode ConvCheckMode   .... Total+1el-Energy
 Convergence forced     ConvForced      .... 0
 Energy Change          TolE            ....  1.000e-09 Eh
 1-El. energy change                    ....  1.000e-06 Eh
 DIIS Error             TolErr          ....  1.000e-08


Diagonalization of the overlap matrix:
Smallest eigenvalue                        ... 7.572e-04
Time for diagonalization                   ...    0.003 sec
Threshold for overlap eigenvalues          ... 1.000e-08
Number of eigenvalues below threshold      ... 0
Time for construction of square roots      ...    0.005 sec
Total time needed                          ...    0.008 sec

-------------------
DFT GRID GENERATION
-------------------

General Integration Accuracy     IntAcc      ...  5.670
Radial Grid Type                 RadialGrid  ... Gauss-Chebyshev
Angular Grid (max. acc.)         AngularGrid ... Lebedev-770
Angular grid pruning method      GridPruning ... 3 (G Style)
Weight generation scheme         WeightScheme... Becke
Basis function cutoff            BFCut       ...    1.0000e-12
Integration weight cutoff        WCut        ...    1.0000e-14
Grids for H and He will be reduced by one unit

# of grid points (after initial pruning)     ...  27192 (   0.0 sec)
# of grid points (after weights+screening)   ...  27192 (   0.0 sec)
Grid point division into batches done        ...    0.7 sec
Reduced shell lists constructed in    0.8 sec

Total number of grid points                  ...    27192
Total number of batches                      ...      425
Average number of points per batch           ...       63
Average number of grid points per atom       ...    27192
Average number of shells per batch           ...    24.99 (80.61%)
Average number of basis functions per batch  ...   114.68 (81.33%)
Average number of large shells per batch     ...    23.32 (93.33%)
Average number of large basis fcns per batch ...   106.60 (92.96%)
Maximum spatial batch extension              ...  17.50, 17.50, 17.50 au
Average spatial batch extension              ...   3.47,  3.47,  3.45 au

Time for grid setup =    0.867 sec

------------------------------
INITIAL GUESS: MODEL POTENTIAL
------------------------------
Loading Hartree-Fock densities                     ... done
Calculating cut-offs                               ... done
Setting up the integral package                    ... done
Initializing the effective Hamiltonian             ... done
Starting the Coulomb interaction                   ... done (   0.0 sec)
Reading the grid                                   ... done
Mapping shells                                     ... done
Starting the XC term evaluation                    ... done (   0.4 sec)
  promolecular density results
     # of electrons  =     15.000000013
     EX              =    -22.415011554
     EC              =     -0.543989231
     EX+EC           =    -22.959000785
Transforming the Hamiltonian                       ... done (   0.0 sec)
Diagonalizing the Hamiltonian                      ... done (   0.0 sec)
Back transforming the eigenvectors                 ... done (   0.0 sec)
Now organizing SCF variables                       ... done
                      ------------------
                      INITIAL GUESS DONE (   1.4 sec)
                      ------------------
--------------
SCF ITERATIONS
--------------
ITER       Energy         Delta-E        Max-DP      RMS-DP      [F,P]     Damp
               ***  Starting incremental Fock matrix formation  ***
  0   -341.1139924205   0.000000000000 0.02113837  0.00023059  0.0109032 0.7000
  1   -341.1144488576  -0.000456437118 0.01601973  0.00017952  0.0080126 0.7000
                               ***Turning on DIIS***
  2   -341.1147711907  -0.000322333068 0.03915928  0.00042518  0.0053276 0.0000
  3   -341.1153890068  -0.000617816176 0.00465316  0.00005821  0.0033652 0.0000
  4   -341.1154291998  -0.000040192931 0.00159239  0.00002362  0.0009249 0.0000
  5   -341.1154318411  -0.000002641320 0.00024295  0.00000296  0.0001677 0.0000
  6   -341.1154318767  -0.000000035604 0.00001117  0.00000016  0.0000081 0.0000
  7   -341.1154318768  -0.000000000099 0.00000130  0.00000001  0.0000006 0.0000
                 **** Energy Check signals convergence ****

               *****************************************************
               *                     SUCCESS                       *
               *           SCF CONVERGED AFTER   8 CYCLES          *
               *****************************************************


----------------
TOTAL SCF ENERGY
----------------

Total Energy       :         -341.11543188 Eh           -9282.22280 eV

Components:
Nuclear Repulsion  :            0.00000000 Eh               0.00000 eV
Electronic Energy  :         -341.11543188 Eh           -9282.22280 eV
One Electron Energy:         -471.58565930 Eh          -12832.49818 eV
Two Electron Energy:          130.47022742 Eh            3550.27538 eV

Virial components:
Potential Energy   :         -681.95293116 Eh          -18556.88267 eV
Kinetic Energy     :          340.83749928 Eh            9274.65987 eV
Virial Ratio       :            2.00081544


DFT components:
N(Alpha)           :        8.999999998050 electrons
N(Beta)            :        5.999999998070 electrons
N(Total)           :       14.999999996121 electrons
E(X)               :      -22.490611427101 Eh       
E(C)               :       -0.524601463834 Eh       
E(XC)              :      -23.015212890935 Eh       
DFET-embed. en.    :        0.000000000000 Eh       

---------------
SCF CONVERGENCE
---------------

  Last Energy change         ...   -1.4211e-12  Tolerance :   1.0000e-09
  Last MAX-Density change    ...    9.4332e-08  Tolerance :   1.0000e-08
  Last RMS-Density change    ...    1.1486e-09  Tolerance :   1.0000e-09
  Last DIIS Error            ...    2.6270e-08  Tolerance :   1.0000e-08

             **** THE GBW FILE WAS UPDATED (p_pbe.gbw) ****
             **** DENSITY FILE WAS UPDATED (p_pbe.scfp.tmp) ****
             **** ENERGY FILE WAS UPDATED (p_pbe.en.tmp) ****
----------------------
UHF SPIN CONTAMINATION
----------------------

Warning: in a DFT calculation there is little theoretical justification to 
         calculate <S**2> as in Hartree-Fock theory. We will do it anyways
         but you should keep in mind that the values have only limited relevance

Expectation value of <S**2>     :     3.750444
Ideal value S*(S+1) for S=1.5   :     3.750000
Deviation                       :     0.000444

----------------
ORBITAL ENERGIES
----------------
                 SPIN UP ORBITALS
  NO   OCC          E(Eh)            E(eV) 
   0   1.0000     -76.332815     -2077.1215 
   1   1.0000      -6.345962      -172.6824 
   2   1.0000      -4.563026      -124.1662 
   3   1.0000      -4.563026      -124.1662 
   4   1.0000      -4.563026      -124.1662 
   5   1.0000      -0.541261       -14.7285 
   6   1.0000      -0.231271        -6.2932 
   7   1.0000      -0.231271        -6.2932 
   8   1.0000      -0.231271        -6.2932 
   9   0.0000      -0.013790        -0.3752 
  10   0.0000       0.013347         0.3632 
  11   0.0000       0.013347         0.3632 
  12   0.0000       0.013347         0.3632 
  13   0.0000       0.058608         1.5948 
  14   0.0000       0.058608         1.5948 
  15   0.0000       0.058608         1.5948 
  16   0.0000       0.058608         1.5948 
  17   0.0000       0.058608         1.5948 
  18   0.0000       0.092099         2.5061 
  19   0.0000       0.092099         2.5061 
  20   0.0000       0.092099         2.5061 
  21   0.0000       0.162778         4.4294 
  22   0.0000       0.194834         5.3017 
  23   0.0000       0.194834         5.3017 
  24   0.0000       0.194834         5.3017 
  25   0.0000       0.194834         5.3017 
  26   0.0000       0.194834         5.3017 
  27   0.0000       0.194834         5.3017 
  28   0.0000       0.194834         5.3017 
  29   0.0000       0.214226         5.8294 
  30   0.0000       0.214226         5.8294 
  31   0.0000       0.214226         5.8294 
  32   0.0000       0.214226         5.8294 
  33   0.0000       0.214226         5.8294 
  34   0.0000       0.340348         9.2614 
  35   0.0000       0.340348         9.2614 
  36   0.0000       0.340348         9.2614 
  37   0.0000       0.347094         9.4449 
  38   0.0000       0.347094         9.4449 
  39   0.0000       0.347094         9.4449 
  40   0.0000       0.347094         9.4449 
  41   0.0000       0.347094         9.4449 
  42   0.0000       0.347094         9.4449 
  43   0.0000       0.347094         9.4449 
  44   0.0000       0.347094         9.4449 
  45   0.0000       0.347094         9.4449 
  46   0.0000       0.529279        14.4024 
  47   0.0000       0.529279        14.4024 
  48   0.0000       0.529279        14.4024 
  49   0.0000       0.529279        14.4024 
  50   0.0000       0.529279        14.4024 
  51   0.0000       0.529279        14.4024 
  52   0.0000       0.529279        14.4024 
  53   0.0000       0.529279        14.4024 
  54   0.0000       0.529279        14.4024 
  55   0.0000       0.529279        14.4024 
  56   0.0000       0.529279        14.4024 
  57   0.0000       0.678612        18.4660 
  58   0.0000       0.678612        18.4660 
  59   0.0000       0.678612        18.4660 
  60   0.0000       0.678612        18.4660 
  61   0.0000       0.678612        18.4660 
  62   0.0000       0.692586        18.8462 
  63   0.0000       0.876999        23.8644 
  64   0.0000       0.876999        23.8644 
  65   0.0000       0.876999        23.8644 
  66   0.0000       0.876999        23.8644 
  67   0.0000       0.876999        23.8644 
  68   0.0000       0.876999        23.8644 
  69   0.0000       0.876999        23.8644 
  70   0.0000       1.018428        27.7128 
  71   0.0000       1.018428        27.7128 
  72   0.0000       1.018428        27.7128 
  73   0.0000       1.872909        50.9644 
  74   0.0000       1.872909        50.9644 
  75   0.0000       1.872909        50.9644 
  76   0.0000       1.872909        50.9644 
  77   0.0000       1.872909        50.9644 
  78   0.0000       2.133985        58.0687 
  79   0.0000       2.133985        58.0687 
  80   0.0000       2.133985        58.0687 
  81   0.0000       2.133985        58.0687 
  82   0.0000       2.133985        58.0687 
  83   0.0000       2.133985        58.0687 
  84   0.0000       2.133985        58.0687 
  85   0.0000       2.133985        58.0687 
  86   0.0000       2.133985        58.0687 
  87   0.0000       2.322910        63.2096 
  88   0.0000       2.644288        71.9547 
  89   0.0000       2.644288        71.9547 
  90   0.0000       2.644288        71.9547 
  91   0.0000       2.644288        71.9547 
  92   0.0000       2.644288        71.9547 
  93   0.0000       2.644288        71.9547 
  94   0.0000       2.644288        71.9547 
  95   0.0000       3.013763        82.0087 
  96   0.0000       3.013763        82.0087 
  97   0.0000       3.013763        82.0087 
  98   0.0000       4.655333       126.6781 
  99   0.0000       4.655333       126.6781 
 100   0.0000       4.655333       126.6781 
 101   0.0000       4.655333       126.6781 
 102   0.0000       4.655333       126.6781 
 103   0.0000       4.655333       126.6781 
 104   0.0000       4.655333       126.6781 
 105   0.0000       4.655333       126.6781 
 106   0.0000       4.655333       126.6781 
 107   0.0000       4.655333       126.6781 
 108   0.0000       4.655333       126.6781 
 109   0.0000       5.180511       140.9689 
 110   0.0000       5.180511       140.9689 
 111   0.0000       5.180511       140.9689 
 112   0.0000       5.180511       140.9689 
 113   0.0000       5.180511       140.9689 
 114   0.0000       7.231073       196.7675 
 115   0.0000       7.231073       196.7675 
 116   0.0000       7.231073       196.7675 
 117   0.0000       7.231073       196.7675 
 118   0.0000       7.231073       196.7675 
 119   0.0000       7.231073       196.7675 
 120   0.0000       7.231073       196.7675 
 121   0.0000       7.231073       196.7675 
 122   0.0000       7.231073       196.7675 
 123   0.0000      10.185261       277.1550 
 124   0.0000      10.185261       277.1550 
 125   0.0000      10.185261       277.1550 
 126   0.0000      10.185261       277.1550 
 127   0.0000      10.185261       277.1550 
 128   0.0000      10.185261       277.1550 
 129   0.0000      10.185261       277.1550 
 130   0.0000      15.950332       434.0306 
 131   0.0000      15.950332       434.0306 
 132   0.0000      15.950332       434.0306 
 133   0.0000      15.950332       434.0306 
 134   0.0000      15.950332       434.0306 
 135   0.0000      19.554856       532.1147 
 136   0.0000      58.752077      1598.7253 
 137   0.0000      58.752077      1598.7253 
 138   0.0000      58.752077      1598.7253 
 139   0.0000      58.752077      1598.7253 
 140   0.0000      58.752077      1598.7253 

                 SPIN DOWN ORBITALS
  NO   OCC          E(Eh)            E(eV) 
   0   1.0000     -76.322236     -2076.8336 
   1   1.0000      -6.334627      -172.3740 
   2   1.0000      -4.547790      -123.7517 
   3   1.0000      -4.547790      -123.7517 
   4   1.0000      -4.547790      -123.7517 
   5   1.0000      -0.441277       -12.0078 
   6   0.0000      -0.137366        -3.7379 
   7   0.0000      -0.137366        -3.7379 
   8   0.0000      -0.137366        -3.7379 
   9   0.0000       0.021562         0.5867 
  10   0.0000       0.030516         0.8304 
  11   0.0000       0.030516         0.8304 
  12   0.0000       0.030516         0.8304 
  13   0.0000       0.102309         2.7840 
  14   0.0000       0.102309         2.7840 
  15   0.0000       0.102309         2.7840 
  16   0.0000       0.102309         2.7840 
  17   0.0000       0.102309         2.7840 
  18   0.0000       0.122608         3.3363 
  19   0.0000       0.122608         3.3363 
  20   0.0000       0.122608         3.3363 
  21   0.0000       0.199326         5.4239 
  22   0.0000       0.232493         6.3265 
  23   0.0000       0.232493         6.3265 
  24   0.0000       0.232493         6.3265 
  25   0.0000       0.232493         6.3265 
  26   0.0000       0.232493         6.3265 
  27   0.0000       0.232493         6.3265 
  28   0.0000       0.232493         6.3265 
  29   0.0000       0.283662         7.7188 
  30   0.0000       0.283662         7.7188 
  31   0.0000       0.283662         7.7188 
  32   0.0000       0.283662         7.7188 
  33   0.0000       0.283662         7.7188 
  34   0.0000       0.383030        10.4228 
  35   0.0000       0.383030        10.4228 
  36   0.0000       0.383030        10.4228 
  37   0.0000       0.384917        10.4741 
  38   0.0000       0.384917        10.4741 
  39   0.0000       0.384917        10.4741 
  40   0.0000       0.384917        10.4741 
  41   0.0000       0.384917        10.4741 
  42   0.0000       0.384917        10.4741 
  43   0.0000       0.384917        10.4741 
  44   0.0000       0.384917        10.4741 
  45   0.0000       0.384917        10.4741 
  46   0.0000       0.567380        15.4392 
  47   0.0000       0.567380        15.4392 
  48   0.0000       0.567380        15.4392 
  49   0.0000       0.567380        15.4392 
  50   0.0000       0.567380        15.4392 
  51   0.0000       0.567380        15.4392 
  52   0.0000       0.567380        15.4392 
  53   0.0000       0.567380        15.4392 
  54   0.0000       0.567380        15.4392 
  55   0.0000       0.567380        15.4392 
  56   0.0000       0.567380        15.4392 
  57   0.0000       0.749181        20.3863 
  58   0.0000       0.749181        20.3863 
  59   0.0000       0.749181        20.3863 
  60   0.0000       0.749181        20.3863 
  61   0.0000       0.749181        20.3863 
  62   0.0000       0.756113        20.5749 
  63   0.0000       0.970318        26.4037 
  64   0.0000       0.970318        26.4037 
  65   0.0000       0.970318        26.4037 
  66   0.0000       0.970318        26.4037 
  67   0.0000       0.970318        26.4037 
  68   0.0000       0.970318        26.4037 
  69   0.0000       0.970318        26.4037 
  70   0.0000       1.086561        29.5668 
  71   0.0000       1.086561        29.5668 
  72   0.0000       1.086561        29.5668 
  73   0.0000       1.937788        52.7299 
  74   0.0000       1.937788        52.7299 
  75   0.0000       1.937788        52.7299 
  76   0.0000       1.937788        52.7299 
  77   0.0000       1.937788        52.7299 
  78   0.0000       2.248757        61.1918 
  79   0.0000       2.248757        61.1918 
  80   0.0000       2.248757        61.1918 
  81   0.0000       2.248757        61.1918 
  82   0.0000       2.248757        61.1918 
  83   0.0000       2.248757        61.1918 
  84   0.0000       2.248757        61.1918 
  85   0.0000       2.248757        61.1918 
  86   0.0000       2.248757        61.1918 
  87   0.0000       2.385588        64.9151 
  88   0.0000       2.742513        74.6276 
  89   0.0000       2.742513        74.6276 
  90   0.0000       2.742513        74.6276 
  91   0.0000       2.742513        74.6276 
  92   0.0000       2.742513        74.6276 
  93   0.0000       2.742513        74.6276 
  94   0.0000       2.742513        74.6276 
  95   0.0000       3.070600        83.5553 
  96   0.0000       3.070600        83.5553 
  97   0.0000       3.070600        83.5553 
  98   0.0000       4.779046       130.0445 
  99   0.0000       4.779046       130.0445 
 100   0.0000       4.779046       130.0445 
 101   0.0000       4.779046       130.0445 
 102   0.0000       4.779046       130.0445 
 103   0.0000       4.779046       130.0445 
 104   0.0000       4.779046       130.0445 
 105   0.0000       4.779046       130.0445 
 106   0.0000       4.779046       130.0445 
 107   0.0000       4.779046       130.0445 
 108   0.0000       4.779046       130.0445 
 109   0.0000       5.233495       142.4106 
 110   0.0000       5.233495       142.4106 
 111   0.0000       5.233495       142.4106 
 112   0.0000       5.233495       142.4106 
 113   0.0000       5.233495       142.4106 
 114   0.0000       7.301750       198.6907 
 115   0.0000       7.301750       198.6907 
 116   0.0000       7.301750       198.6907 
 117   0.0000       7.301750       198.6907 
 118   0.0000       7.301750       198.6907 
 119   0.0000       7.301750       198.6907 
 120   0.0000       7.301750       198.6907 
 121   0.0000       7.301750       198.6907 
 122   0.0000       7.301750       198.6907 
 123   0.0000      10.201878       277.6072 
 124   0.0000      10.201878       277.6072 
 125   0.0000      10.201878       277.6072 
 126   0.0000      10.201878       277.6072 
 127   0.0000      10.201878       277.6072 
 128   0.0000      10.201878       277.6072 
 129   0.0000      10.201878       277.6072 
 130   0.0000      15.967939       434.5097 
 131   0.0000      15.967939       434.5097 
 132   0.0000      15.967939       434.5097 
 133   0.0000      15.967939       434.5097 
 134   0.0000      15.967939       434.5097 
 135   0.0000      19.604097       533.4546 
 136   0.0000      58.777808      1599.4255 
 137   0.0000      58.777808      1599.4255 
 138   0.0000      58.777808      1599.4255 
 139   0.0000      58.777808      1599.4255 
 140   0.0000      58.777808      1599.4255 

                    ********************************
                    * MULLIKEN POPULATION ANALYSIS *
                    ********************************

--------------------------------------------
MULLIKEN ATOMIC CHARGES AND SPIN POPULATIONS
--------------------------------------------
   0 P :   -0.000000    3.000000
Sum of atomic charges         :   -0.0000000
Sum of atomic spin populations:    3.0000000

-----------------------------------------------------
MULLIKEN REDUCED ORBITAL CHARGES AND SPIN POPULATIONS
-----------------------------------------------------
CHARGE
  0 P s       :     6.000000  s :     6.000000
      pz      :     3.000000  p :     9.000000
      px      :     3.000000
      py      :     3.000000
      dz2     :     0.000000  d :     0.000000
      dxz     :     0.000000
      dyz     :     0.000000
      dx2y2   :     0.000000
      dxy     :     0.000000
      f0      :     0.000000  f :     0.000000
      f+1     :     0.000000
      f-1     :     0.000000
      f+2     :     0.000000
      f-2     :     0.000000
      f+3     :     0.000000
      f-3     :     0.000000
      g0      :     0.000000  g :     0.000000
      g+1     :     0.000000
      g-1     :     0.000000
      g+2     :     0.000000
      g-2     :     0.000000
      g+3     :     0.000000
      g-3     :     0.000000
      g+4     :     0.000000
      g-4     :     0.000000
      h0      :     0.000000  h :     0.000000
      h+1     :     0.000000
      h-1     :     0.000000
      h+2     :     0.000000
      h-2     :     0.000000
      h+3     :     0.000000
      h-3     :     0.000000
      h+4     :     0.000000
      h-4     :     0.000000
      h+5     :     0.000000
      h-5     :     0.000000

SPIN
  0 P s       :    -0.000000  s :    -0.000000
      pz      :     1.000000  p :     3.000000
      px      :     1.000000
      py      :     1.000000
      dz2     :     0.000000  d :     0.000000
      dxz     :     0.000000
      dyz     :     0.000000
      dx2y2   :     0.000000
      dxy     :     0.000000
      f0      :     0.000000  f :     0.000000
      f+1     :     0.000000
      f-1     :     0.000000
      f+2     :     0.000000
      f-2     :     0.000000
      f+3     :     0.000000
      f-3     :     0.000000
      g0      :     0.000000  g :     0.000000
      g+1     :     0.000000
      g-1     :     0.000000
      g+2     :     0.000000
      g-2     :     0.000000
      g+3     :     0.000000
      g-3     :     0.000000
      g+4     :     0.000000
      g-4     :     0.000000
      h0      :     0.000000  h :     0.000000
      h+1     :     0.000000
      h-1     :     0.000000
      h+2     :     0.000000
      h-2     :     0.000000
      h+3     :     0.000000
      h-3     :     0.000000
      h+4     :     0.000000
      h-4     :     0.000000
      h+5     :     0.000000
      h-5     :     0.000000


                     *******************************
                     * LOEWDIN POPULATION ANALYSIS *
                     *******************************

-------------------------------------------
LOEWDIN ATOMIC CHARGES AND SPIN POPULATIONS
-------------------------------------------
   0 P :   -0.000000    3.000000

----------------------------------------------------
LOEWDIN REDUCED ORBITAL CHARGES AND SPIN POPULATIONS
----------------------------------------------------
CHARGE
  0 P s       :     6.000000  s :     6.000000
      pz      :     3.000000  p :     9.000000
      px      :     3.000000
      py      :     3.000000
      dz2     :     0.000000  d :     0.000000
      dxz     :     0.000000
      dyz     :     0.000000
      dx2y2   :     0.000000
      dxy     :     0.000000
      f0      :     0.000000  f :     0.000000
      f+1     :     0.000000
      f-1     :     0.000000
      f+2     :     0.000000
      f-2     :     0.000000
      f+3     :     0.000000
      f-3     :     0.000000
      g0      :     0.000000  g :     0.000000
      g+1     :     0.000000
      g-1     :     0.000000
      g+2     :     0.000000
      g-2     :     0.000000
      g+3     :     0.000000
      g-3     :     0.000000
      g+4     :     0.000000
      g-4     :     0.000000
      h0      :     0.000000  h :     0.000000
      h+1     :     0.000000
      h-1     :     0.000000
      h+2     :     0.000000
      h-2     :     0.000000
      h+3     :     0.000000
      h-3     :     0.000000
      h+4     :     0.000000
      h-4     :     0.000000
      h+5     :     0.000000
      h-5     :     0.000000

SPIN
  0 P s       :    -0.000000  s :    -0.000000
      pz      :     1.000000  p :     3.000000
      px      :     1.000000
      py      :     1.000000
      dz2     :     0.000000  d :     0.000000
      dxz     :     0.000000
      dyz     :     0.000000
      dx2y2   :     0.000000
      dxy     :     0.000000
      f0      :     0.000000  f :     0.000000
      f+1     :     0.000000
      f-1     :     0.000000
      f+2     :     0.000000
      f-2     :     0.000000
      f+3     :     0.000000
      f-3     :     0.000000
      g0      :     0.000000  g :     0.000000
      g+1     :     0.000000
      g-1     :     0.000000
      g+2     :     0.000000
      g-2     :     0.000000
      g+3     :     0.000000
      g-3     :     0.000000
      g+4     :     0.000000
      g-4     :     0.000000
      h0      :     0.000000  h :     0.000000
      h+1     :     0.000000
      h-1     :     0.000000
      h+2     :     0.000000
      h-2     :     0.000000
      h+3     :     0.000000
      h-3     :     0.000000
      h+4     :     0.000000
      h-4     :     0.000000
      h+5     :     0.000000
      h-5     :     0.000000


                      *****************************
                      * MAYER POPULATION ANALYSIS *
                      *****************************

  NA   - Mulliken gross atomic population
  ZA   - Total nuclear charge
  QA   - Mulliken gross atomic charge
  VA   - Mayer's total valence
  BVA  - Mayer's bonded valence
  FA   - Mayer's free valence

  ATOM       NA         ZA         QA         VA         BVA        FA
  0 P     15.0000    15.0000    -0.0000     3.0009     0.0000     3.0009

  Mayer bond orders larger than 0.1


-------
TIMINGS
-------

Total SCF time: 0 days 0 hours 0 min 31 sec 

Total time                  ....      31.395 sec
Sum of individual times     ....      31.012 sec  ( 98.8%)

Fock matrix formation       ....      29.396 sec  ( 93.6%)
  XC integration            ....       6.861 sec  ( 23.3% of F)
    Basis function eval.    ....       1.022 sec  ( 14.9% of XC)
    Density eval.           ....       1.304 sec  ( 19.0% of XC)
    XC-Functional eval.     ....       0.319 sec  (  4.7% of XC)
    XC-Potential eval.      ....       4.028 sec  ( 58.7% of XC)
Diagonalization             ....       0.084 sec  (  0.3%)
Density matrix formation    ....       0.002 sec  (  0.0%)
Population analysis         ....       0.025 sec  (  0.1%)
Initial guess               ....       0.552 sec  (  1.8%)
Orbital Transformation      ....       0.000 sec  (  0.0%)
Orbital Orthonormalization  ....       0.000 sec  (  0.0%)
DIIS solution               ....       0.087 sec  (  0.3%)
Grid generation             ....       0.867 sec  (  2.8%)

-------------------------   --------------------
FINAL SINGLE POINT ENERGY      -341.115431876784
-------------------------   --------------------


                            ***************************************
                            *     ORCA property calculations      *
                            ***************************************

                                    ---------------------
                                    Active property flags
                                    ---------------------
   (+) Dipole Moment
   (+) Polarizability


------------------------------------------------------------------------------
                       ORCA ELECTRIC PROPERTIES CALCULATION
------------------------------------------------------------------------------

Dipole Moment Calculation                       ... on
Quadrupole Moment Calculation                   ... off
Polarizability Calculation                      ... Analytic (CP-SCF)
GBWName                                         ... p_pbe.gbw
Electron density file                           ... p_pbe.scfp.tmp
The origin for moment calculation is the CENTER OF MASS  = ( 0.000000,  0.000000  0.000000)

-------------
DIPOLE MOMENT
-------------
                                X             Y             Z
Electronic contribution:      0.00000       0.00000       0.00000
Nuclear contribution   :      0.00000       0.00000       0.00000
                        -----------------------------------------
Total Dipole Moment    :      0.00000       0.00000       0.00000
                        -----------------------------------------
Magnitude (a.u.)       :      0.00000
Magnitude (Debye)      :      0.00000



--------------------
Rotational spectrum 
--------------------
 
Rotational constants in cm-1:     0.000000     0.000000     0.000000 
Rotational constants in MHz :     0.000000     0.000000     0.000000 

 Dipole components along the rotational axes: 
x,y,z [a.u.] :     0.000000     0.000000     0.000000 
x,y,z [Debye]:     0.000000     0.000000     0.000000 

 
Transforming and storing MO dipole integrals   ... done

                ... starting polarizability calculation

Opening the Dipole integral file               ... (p_pbe.dmo.tmp) done
Reading Dipole-MO integrals                    ... done
Solving CP-SCF equations                       ... 
------------------------------------------------------------------------------
                           ORCA CP-SCF CALCULATION
------------------------------------------------------------------------------

Input orbitals are from        ... p_pbe.gbw
Input Perturbation             ... p_pbe.cpv.tmp
Wavefunction output            ... p_pbe.cpu.tmp
Perturbation mode              ... Real perturbation (singlet)
Solver                         ... POPLE
Max. number of iterations      ... 200
Convergence tolerance          ... 1.000e-06
Integral handling              ... Direct
Number of perturbations        ... 3
Number of operators            ... 2
Orbital ranges used for CP-SCF:
 Operator 0:  Orbitals   0...  8  to   9...140
 Operator 1:  Orbitals   0...  5  to   6...140
DFT calculation                         ... on
Exchange functional (SCF)               ... PBE
Exchange functional (CP-SCF)            ... PBE
   PBE kappa parameter  XKappa (SCF)    ...  0.804000
   PBE kappa parameter  XKappa (CP-SCF) ...  0.804000
   PBE mue parameter   XMuePBE (SCF)    ...  0.219520
   PBE mue parameter   XMuePBE (CP-SCF) ...  0.219520
Correlation functional (SCF)            ... PBE
Correlation functional (CP-SCF)         ... PBE
   PBE beta parameter CBetaPBE (SCF)    ...  0.066725
   PBE beta parameter CBetaPBE (CP-SCF) ...  0.066725
 LDA part of GGA corr.  LDAOpt (SCF)    ... PW91-LDA
 LDA part of GGA corr.  LDAOpt (CP-SCF) ... PW91-LDA
Variables per vector in CP-SCF ... 1998
Number of vectors sought       ... 3
Recalculating density on grid  ... done
Calculating the xc-kernel      ... done
     CP-SCF ITERATION   0: 
     CP-SCF ITERATION   1:      0.010830915908
     CP-SCF ITERATION   2:      0.000363246682
     CP-SCF ITERATION   3:      0.000016315060
     CP-SCF ITERATION   4:      0.000000054473
done
Reading CP-SCF coefficients                    ... done
Doing the polarizability tensor   ... done
Cleaning up                                    ... done

-------------------------
THE POLARIZABILITY TENSOR
-------------------------

The raw cartesian tensor (atomic units):
   27.77500      0.00000      0.00000  
    0.00000     27.77500     -0.00000  
    0.00000     -0.00000     27.77500  
diagonalized tensor: 
   27.77500     27.77500     27.77500  

   -0.11335      0.99350      0.01088  
    0.89146      0.10654     -0.44039  
    0.43868      0.04022      0.89774  

Isotropic polarizability :  27.77500


Timings for individual modules:

Sum of individual times         ...       78.716 sec (=   1.312 min)
GTO integral calculation        ...        0.825 sec (=   0.014 min)   1.0 %
SCF iterations                  ...       31.439 sec (=   0.524 min)  39.9 %
Solution of CP-SCF eqns.        ...       46.452 sec (=   0.774 min)  59.0 %
                             ****ORCA TERMINATED NORMALLY****
TOTAL RUN TIME: 0 days 0 hours 1 minutes 23 seconds 119 msec
