
                                 *****************
                                 * O   R   C   A *
                                 *****************

           --- An Ab Initio, DFT and Semiempirical electronic structure package ---

                  #######################################################
                  #                        -***-                        #
                  #          Department of theory and spectroscopy      #
                  #               Directorship: Frank Neese             #
                  #        Max Planck Institute fuer Kohlenforschung    #
                  #                Kaiser Wilhelm Platz 1               #
                  #                 D-45470 Muelheim/Ruhr               #
                  #                      Germany                        #
                  #                                                     #
                  #                  All rights reserved                #
                  #                        -***-                        #
                  #######################################################


                         Program Version 4.1.2  - RELEASE  -


 With contributions from (in alphabetic order):
   Daniel Aravena         : Magnetic Properties
   Michael Atanasov       : Ab Initio Ligand Field Theory
   Alexander A. Auer      : GIAO ZORA
   Ute Becker             : Parallelization
   Giovanni Bistoni       : ED, Open-shell LED
   Martin Brehm           : Molecular dynamics
   Dmytro Bykov           : SCF Hessian
   Vijay G. Chilkuri      : MRCI spin determinant printing
   Dipayan Datta          : RHF DLPNO-CCSD density
   Achintya Kumar Dutta   : EOM-CC, STEOM-CC
   Dmitry Ganyushin       : Spin-Orbit,Spin-Spin,Magnetic field MRCI
   Miquel Garcia          : C-PCM Hessian
   Yang Guo               : DLPNO-NEVPT2, CIM, IAO-localization
   Andreas Hansen         : Spin unrestricted coupled pair/coupled cluster methods
   Benjamin Helmich-Paris : CASSCF linear response (MC-RPA)
   Lee Huntington         : MR-EOM, pCC
   Robert Izsak           : Overlap fitted RIJCOSX, COSX-SCS-MP3, EOM
   Christian Kollmar      : KDIIS, OOCD, Brueckner-CCSD(T), CCSD density
   Simone Kossmann        : Meta GGA functionals, TD-DFT gradient, OOMP2, MP2 Hessian
   Martin Krupicka        : AUTO-CI
   Lucas Lang             : DCDCAS
   Dagmar Lenk            : GEPOL surface, SMD
   Dimitrios Liakos       : Extrapolation schemes; parallel MDCI
   Dimitrios Manganas     : ROCIS; embedding schemes
   Dimitrios Pantazis     : SARC Basis sets
   Taras Petrenko         : DFT Hessian,TD-DFT gradient, ASA, ECA, R-Raman, ABS, FL, XAS/XES, NRVS
   Peter Pinski           : DLPNO-MP2, DLPNO-MP2 Gradient
   Christoph Reimann      : Effective Core Potentials
   Marius Retegan         : Local ZFS, SOC
   Christoph Riplinger    : Optimizer, TS searches, QM/MM, DLPNO-CCSD(T), (RO)-DLPNO pert. Triples
   Tobias Risthaus        : Range-separated hybrids, TD-DFT gradient, RPA, STAB
   Michael Roemelt        : Restricted open shell CIS
   Masaaki Saitow         : Open-shell DLPNO
   Barbara Sandhoefer     : DKH picture change effects
   Avijit Sen             : IP-ROCIS
   Kantharuban Sivalingam : CASSCF convergence, NEVPT2, FIC-MRCI
   Bernardo de Souza      : ESD, SOC TD-DFT
   Georgi Stoychev        : AutoAux, RI-MP2 NMR
   Willem Van den Heuvel  : Paramagnetic NMR
   Boris Wezisla          : Elementary symmetry handling
   Frank Wennmohs         : Technical directorship


 We gratefully acknowledge several colleagues who have allowed us to
 interface, adapt or use parts of their codes:
   Stefan Grimme, W. Hujo, H. Kruse,             : VdW corrections, initial TS optimization,
                  C. Bannwarth                     DFT functionals, gCP, sTDA/sTD-DF
   Ed Valeev                                     : LibInt (2-el integral package), F12 methods
   Garnet Chan, S. Sharma, J. Yang, R. Olivares  : DMRG
   Ulf Ekstrom                                   : XCFun DFT Library
   Mihaly Kallay                                 : mrcc  (arbitrary order and MRCC methods)
   Andreas Klamt, Michael Diedenhofen            : otool_cosmo (COSMO solvation model)
   Jiri Pittner, Ondrej Demel                    : Mk-CCSD
   Frank Weinhold                                : gennbo (NPA and NBO analysis)
   Christopher J. Cramer and Donald G. Truhlar   : smd solvation model
   Lars Goerigk                                  : TD-DFT with DH, B97 family of functionals
   V. Asgeirsson, H. Jonsson                     : NEB implementation
   FAccTs GmbH                                   : IRC, NEB, NEB-TS, Multilevel


 Your calculation uses the libint2 library for the computation of 2-el integrals
 For citations please refer to: http://libint.valeyev.net

 This ORCA versions uses:
   CBLAS   interface :  Fast vector & matrix operations
   LAPACKE interface :  Fast linear algebra routines
   SCALAPACK package :  Parallel linear algebra routines


----- Orbital basis set information -----
Your calculation utilizes the basis: aug-pc-4
   H, C-F              : F. Jensen, J. Chem. Phys. 115, 9113 (2001).
                         F. Jensen, J. Chem. Phys. 116, 7372 (2002).
                         F. Jensen, J. Chem. Phys. 117, 9234 (2002).
   Si-Cl               : F. Jensen, T. Helgaker, J. Chem. Phys. 121, 3463 (2004).
   He-B, Ne-Mg, Al, Ar : F. Jensen, J. Phys. Chem. A 111, 11198 (2007).
   K, Ca, Ga-Kr        : F. Jensen, J. Chem. Phys. 136, 094110 (2012).
   Sc-Zn               : F. Jensen, J. Chem. Phys. 138, 014107 (2013).

================================================================================
                                        WARNINGS
                       Please study these warnings very carefully!
================================================================================


INFO   : the flag for use of LIBINT has been found!

================================================================================
                                       INPUT FILE
================================================================================
NAME = ph2_pbe.inp
|  1> !uks pbe nori aug-pc-4 grid7 nofinalgrid verytightscf
|  2> 
|  3> %maxcore 1500
|  4> 
|  5> %pal nprocs 1 end
|  6> 
|  7> %scf
|  8> 	maxiter 200
|  9> end
| 10> %elprop
| 11> 	dipole true
| 12> 	 polar 1
| 13> 	 maxiter 200
| 14> end
| 15> 
| 16> * xyz 0 2
| 17> P 0.0000 0.0000 0.0000
| 18> H 0.0000 1.0229 0.9964
| 19> H 0.0000 -1.0229 0.9964
| 20> *
| 21> 
| 22>                          ****END OF INPUT****
================================================================================

                       ****************************
                       * Single Point Calculation *
                       ****************************

---------------------------------
CARTESIAN COORDINATES (ANGSTROEM)
---------------------------------
  P      0.000000    0.000000    0.000000
  H      0.000000    1.022900    0.996400
  H      0.000000   -1.022900    0.996400

----------------------------
CARTESIAN COORDINATES (A.U.)
----------------------------
  NO LB      ZA    FRAG     MASS         X           Y           Z
   0 P    15.0000    0    30.974    0.000000    0.000000    0.000000
   1 H     1.0000    0     1.008    0.000000    1.933001    1.882923
   2 H     1.0000    0     1.008    0.000000   -1.933001    1.882923

--------------------------------
INTERNAL COORDINATES (ANGSTROEM)
--------------------------------
 P      0   0   0     0.000000000000     0.00000000     0.00000000
 H      1   0   0     1.427983672876     0.00000000     0.00000000
 H      1   2   0     1.427983672876    91.50373991     0.00000000

---------------------------
INTERNAL COORDINATES (A.U.)
---------------------------
 P      0   0   0     0.000000000000     0.00000000     0.00000000
 H      1   0   0     2.698498065446     0.00000000     0.00000000
 H      1   2   0     2.698498065446    91.50373991     0.00000000

---------------------
BASIS SET INFORMATION
---------------------
There are 2 groups of distinct atoms

 Group   1 Type P   : 44s27p7d4f3g2h contracted to 8s7p7d4f3g2h pattern {15121211111/111111111/1111111/1111/111/11}
 Group   2 Type H   : 12s7p4d3f2g contracted to 8s7p4d3f2g pattern {51111111/1111111/1111/111/11}

Atom   0P    basis set group =>   1
Atom   1H    basis set group =>   2
Atom   2H    basis set group =>   2
------------------------------------------------------------------------------
                           ORCA GTO INTEGRAL CALCULATION
------------------------------------------------------------------------------

                         BASIS SET STATISTICS AND STARTUP INFO

 # of primitive gaussian shells          ...  143
 # of primitive gaussian functions       ...  421
 # of contracted shells                  ...   79
 # of contracted basis functions         ...  317
 Highest angular momentum                ...    5
 Maximum contraction depth               ...   15
 Integral package used                   ... LIBINT
 Integral threshhold            Thresh   ...  1.000e-12
 Primitive cut-off              TCut     ...  1.000e-14


------------------------------ INTEGRAL EVALUATION ----------------------------


 * One electron integrals 
 Pre-screening matrix                    ... done
 Shell pair data                         ... done (   0.001 sec)

-------------------------------------------------------------------------------
                                 ORCA SCF
-------------------------------------------------------------------------------

------------
SCF SETTINGS
------------
Hamiltonian:
 Density Functional     Method          .... DFT(GTOs)
 Exchange Functional    Exchange        .... PBE
   PBE kappa parameter   XKappa         ....  0.804000
   PBE mue parameter    XMuePBE         ....  0.219520
 Correlation Functional Correlation     .... PBE
   PBE beta parameter  CBetaPBE         ....  0.066725
 LDA part of GGA corr.  LDAOpt          .... PW91-LDA
 Gradients option       PostSCFGGA      .... off
   Density functional embedding theory  .... OFF
   NL short-range parameter             ....  6.400000


General Settings:
 Integral files         IntName         .... ph2_pbe
 Hartree-Fock type      HFTyp           .... UHF
 Total Charge           Charge          ....    0
 Multiplicity           Mult            ....    2
 Number of Electrons    NEL             ....   17
 Basis Dimension        Dim             ....  317
 Nuclear Repulsion      ENuc            ....     11.3759605236 Eh

Convergence Acceleration:
 DIIS                   CNVDIIS         .... on
   Start iteration      DIISMaxIt       ....    12
   Startup error        DIISStart       ....  0.200000
   # of expansion vecs  DIISMaxEq       ....     5
   Bias factor          DIISBfac        ....   1.050
   Max. coefficient     DIISMaxC        ....  10.000
 Newton-Raphson         CNVNR           .... off
 SOSCF                  CNVSOSCF        .... off
 Level Shifting         CNVShift        .... on
   Level shift para.    LevelShift      ....    0.2500
   Turn off err/grad.   ShiftErr        ....    0.0010
 Zerner damping         CNVZerner       .... off
 Static damping         CNVDamp         .... on
   Fraction old density DampFac         ....    0.7000
   Max. Damping (<1)    DampMax         ....    0.9800
   Min. Damping (>=0)   DampMin         ....    0.0000
   Turn off err/grad.   DampErr         ....    0.1000
 Fernandez-Rico         CNVRico         .... off

SCF Procedure:
 Maximum # iterations   MaxIter         ....   200
 SCF integral mode      SCFMode         .... Direct
   Integral package                     .... LIBINT
 Reset frequency        DirectResetFreq ....    20
 Integral Threshold     Thresh          ....  1.000e-12 Eh
 Primitive CutOff       TCut            ....  1.000e-14 Eh

Convergence Tolerance:
 Convergence Check Mode ConvCheckMode   .... Total+1el-Energy
 Convergence forced     ConvForced      .... 0
 Energy Change          TolE            ....  1.000e-09 Eh
 1-El. energy change                    ....  1.000e-06 Eh
 DIIS Error             TolErr          ....  1.000e-08


Diagonalization of the overlap matrix:
Smallest eigenvalue                        ... 4.004e-06
Time for diagonalization                   ...    0.022 sec
Threshold for overlap eigenvalues          ... 1.000e-08
Number of eigenvalues below threshold      ... 0
Time for construction of square roots      ...    0.013 sec
Total time needed                          ...    0.036 sec

-------------------
DFT GRID GENERATION
-------------------

General Integration Accuracy     IntAcc      ...  5.670
Radial Grid Type                 RadialGrid  ... Gauss-Chebyshev
Angular Grid (max. acc.)         AngularGrid ... Lebedev-770
Angular grid pruning method      GridPruning ... 3 (G Style)
Weight generation scheme         WeightScheme... Becke
Basis function cutoff            BFCut       ...    1.0000e-12
Integration weight cutoff        WCut        ...    1.0000e-14
Grids for H and He will be reduced by one unit

# of grid points (after initial pruning)     ...  62864 (   0.0 sec)
# of grid points (after weights+screening)   ...  62356 (   0.0 sec)
nearest neighbour list constructed           ...    0.0 sec
Grid point re-assignment to atoms done       ...    0.0 sec
Grid point division into batches done        ...    1.2 sec
Reduced shell lists constructed in    1.9 sec

Total number of grid points                  ...    62356
Total number of batches                      ...      975
Average number of points per batch           ...       63
Average number of grid points per atom       ...    20785
Average number of shells per batch           ...    60.51 (76.60%)
Average number of basis functions per batch  ...   248.03 (78.24%)
Average number of large shells per batch     ...    54.71 (90.41%)
Average number of large basis fcns per batch ...   224.76 (90.62%)
Maximum spatial batch extension              ...  20.90, 16.29, 17.50 au
Average spatial batch extension              ...   2.44,  2.28,  2.39 au

Time for grid setup =    1.911 sec

------------------------------
INITIAL GUESS: MODEL POTENTIAL
------------------------------
Loading Hartree-Fock densities                     ... done
Calculating cut-offs                               ... done
Setting up the integral package                    ... done
Initializing the effective Hamiltonian             ... done
Starting the Coulomb interaction                   ... done (   0.1 sec)
Reading the grid                                   ... done
Mapping shells                                     ... done
Starting the XC term evaluation                    ... done (   3.2 sec)
  promolecular density results
     # of electrons  =     16.999020847
     EX              =    -23.052870222
     EC              =     -0.609728693
     EX+EC           =    -23.662598915
Transforming the Hamiltonian                       ... done (   0.0 sec)
Diagonalizing the Hamiltonian                      ... done (   0.0 sec)
Back transforming the eigenvectors                 ... done (   0.0 sec)
Now organizing SCF variables                       ... done
                      ------------------
                      INITIAL GUESS DONE (   5.4 sec)
                      ------------------
--------------
SCF ITERATIONS
--------------
ITER       Energy         Delta-E        Max-DP      RMS-DP      [F,P]     Damp
               ***  Starting incremental Fock matrix formation  ***
  0   -342.3547582653   0.000000000000 0.01492132  0.00009571  0.0370923 0.7000
  1   -342.3572298577  -0.002471592406 0.01216271  0.00007410  0.0245881 0.7000
                               ***Turning on DIIS***
  2   -342.3587902442  -0.001560386504 0.02866982  0.00016027  0.0143935 0.0000
  3   -342.3615876327  -0.002797388541 0.00583313  0.00004952  0.0096886 0.0000
  4   -342.3618976145  -0.000309981747 0.00178020  0.00001267  0.0020261 0.0000
  5   -342.3619253681  -0.000027753615 0.00104738  0.00000964  0.0005674 0.0000
  6   -342.3619311738  -0.000005805703 0.00030237  0.00000255  0.0001319 0.0000
  7   -342.3619313279  -0.000000154087 0.00007560  0.00000048  0.0000462 0.0000
  8   -342.3619313383  -0.000000010384 0.00003245  0.00000030  0.0000187 0.0000
  9   -342.3619313417  -0.000000003403 0.00001017  0.00000009  0.0000015 0.0000
 10   -342.3619313418  -0.000000000122 0.00003297  0.00000017  0.0000005 0.0000
                 **** Energy Check signals convergence ****

               *****************************************************
               *                     SUCCESS                       *
               *           SCF CONVERGED AFTER  11 CYCLES          *
               *****************************************************


----------------
TOTAL SCF ENERGY
----------------

Total Energy       :         -342.36193134 Eh           -9316.14178 eV

Components:
Nuclear Repulsion  :           11.37596052 Eh             309.55562 eV
Electronic Energy  :         -353.73789187 Eh           -9625.69740 eV
One Electron Energy:         -495.64131495 Eh          -13487.08585 eV
Two Electron Energy:          141.90342308 Eh            3861.38845 eV

Virial components:
Potential Energy   :         -684.41273408 Eh          -18623.81731 eV
Kinetic Energy     :          342.05080273 Eh            9307.67554 eV
Virial Ratio       :            2.00090960


DFT components:
N(Alpha)           :        9.000000016475 electrons
N(Beta)            :        8.000000018016 electrons
N(Total)           :       17.000000034490 electrons
E(X)               :      -23.158758258357 Eh       
E(C)               :       -0.604291361512 Eh       
E(XC)              :      -23.763049619869 Eh       
DFET-embed. en.    :        0.000000000000 Eh       

---------------
SCF CONVERGENCE
---------------

  Last Energy change         ...   -7.6739e-12  Tolerance :   1.0000e-09
  Last MAX-Density change    ...    2.1307e-05  Tolerance :   1.0000e-08
  Last RMS-Density change    ...    1.7483e-07  Tolerance :   1.0000e-09
  Last DIIS Error            ...    1.0723e-07  Tolerance :   1.0000e-08

             **** THE GBW FILE WAS UPDATED (ph2_pbe.gbw) ****
             **** DENSITY FILE WAS UPDATED (ph2_pbe.scfp.tmp) ****
             **** ENERGY FILE WAS UPDATED (ph2_pbe.en.tmp) ****
----------------------
UHF SPIN CONTAMINATION
----------------------

Warning: in a DFT calculation there is little theoretical justification to 
         calculate <S**2> as in Hartree-Fock theory. We will do it anyways
         but you should keep in mind that the values have only limited relevance

Expectation value of <S**2>     :     0.755475
Ideal value S*(S+1) for S=0.5   :     0.750000
Deviation                       :     0.005475

----------------
ORBITAL ENERGIES
----------------
                 SPIN UP ORBITALS
  NO   OCC          E(Eh)            E(eV) 
   0   1.0000     -76.299644     -2076.2189 
   1   1.0000      -6.317944      -171.9200 
   2   1.0000      -4.538025      -123.4859 
   3   1.0000      -4.532154      -123.3262 
   4   1.0000      -4.528948      -123.2390 
   5   1.0000      -0.578584       -15.7441 
   6   1.0000      -0.349320        -9.5055 
   7   1.0000      -0.278758        -7.5854 
   8   1.0000      -0.222110        -6.0439 
   9   0.0000      -0.025752        -0.7008 
  10   0.0000      -0.017442        -0.4746 
  11   0.0000       0.012698         0.3455 
  12   0.0000       0.014234         0.3873 
  13   0.0000       0.015235         0.4146 
  14   0.0000       0.024682         0.6716 
  15   0.0000       0.041994         1.1427 
  16   0.0000       0.043180         1.1750 
  17   0.0000       0.050942         1.3862 
  18   0.0000       0.051303         1.3960 
  19   0.0000       0.054087         1.4718 
  20   0.0000       0.076765         2.0889 
  21   0.0000       0.082107         2.2342 
  22   0.0000       0.085502         2.3266 
  23   0.0000       0.111350         3.0300 
  24   0.0000       0.120400         3.2763 
  25   0.0000       0.121925         3.3178 
  26   0.0000       0.125389         3.4120 
  27   0.0000       0.126014         3.4290 
  28   0.0000       0.133618         3.6359 
  29   0.0000       0.135178         3.6784 
  30   0.0000       0.140837         3.8324 
  31   0.0000       0.147084         4.0024 
  32   0.0000       0.153271         4.1707 
  33   0.0000       0.156525         4.2593 
  34   0.0000       0.160786         4.3752 
  35   0.0000       0.189528         5.1573 
  36   0.0000       0.216319         5.8864 
  37   0.0000       0.221531         6.0282 
  38   0.0000       0.221567         6.0292 
  39   0.0000       0.231816         6.3080 
  40   0.0000       0.235792         6.4162 
  41   0.0000       0.239054         6.5050 
  42   0.0000       0.242622         6.6021 
  43   0.0000       0.246959         6.7201 
  44   0.0000       0.254889         6.9359 
  45   0.0000       0.262574         7.1450 
  46   0.0000       0.266076         7.2403 
  47   0.0000       0.270052         7.3485 
  48   0.0000       0.271719         7.3938 
  49   0.0000       0.279070         7.5939 
  50   0.0000       0.282093         7.6761 
  51   0.0000       0.287478         7.8227 
  52   0.0000       0.298139         8.1128 
  53   0.0000       0.325696         8.8626 
  54   0.0000       0.344204         9.3663 
  55   0.0000       0.344904         9.3853 
  56   0.0000       0.347863         9.4658 
  57   0.0000       0.364208         9.9106 
  58   0.0000       0.365766         9.9530 
  59   0.0000       0.380445        10.3524 
  60   0.0000       0.381079        10.3697 
  61   0.0000       0.399087        10.8597 
  62   0.0000       0.402340        10.9482 
  63   0.0000       0.406122        11.0511 
  64   0.0000       0.425403        11.5758 
  65   0.0000       0.427003        11.6193 
  66   0.0000       0.428823        11.6689 
  67   0.0000       0.428849        11.6696 
  68   0.0000       0.437512        11.9053 
  69   0.0000       0.449425        12.2295 
  70   0.0000       0.457401        12.4465 
  71   0.0000       0.466496        12.6940 
  72   0.0000       0.470216        12.7952 
  73   0.0000       0.480049        13.0628 
  74   0.0000       0.480765        13.0823 
  75   0.0000       0.485743        13.2177 
  76   0.0000       0.491726        13.3806 
  77   0.0000       0.503671        13.7056 
  78   0.0000       0.510164        13.8823 
  79   0.0000       0.520850        14.1730 
  80   0.0000       0.529617        14.4116 
  81   0.0000       0.539157        14.6712 
  82   0.0000       0.546419        14.8688 
  83   0.0000       0.551575        15.0091 
  84   0.0000       0.572339        15.5741 
  85   0.0000       0.579793        15.7770 
  86   0.0000       0.596781        16.2392 
  87   0.0000       0.598956        16.2984 
  88   0.0000       0.605751        16.4833 
  89   0.0000       0.607384        16.5278 
  90   0.0000       0.617346        16.7988 
  91   0.0000       0.620521        16.8852 
  92   0.0000       0.621090        16.9007 
  93   0.0000       0.623241        16.9593 
  94   0.0000       0.635778        17.3004 
  95   0.0000       0.636859        17.3298 
  96   0.0000       0.651971        17.7410 
  97   0.0000       0.653279        17.7766 
  98   0.0000       0.664519        18.0825 
  99   0.0000       0.664746        18.0887 
 100   0.0000       0.668265        18.1844 
 101   0.0000       0.682602        18.5745 
 102   0.0000       0.711025        19.3480 
 103   0.0000       0.718597        19.5540 
 104   0.0000       0.733251        19.9528 
 105   0.0000       0.743791        20.2396 
 106   0.0000       0.745255        20.2794 
 107   0.0000       0.749015        20.3817 
 108   0.0000       0.756749        20.5922 
 109   0.0000       0.760231        20.6869 
 110   0.0000       0.762881        20.7591 
 111   0.0000       0.766797        20.8656 
 112   0.0000       0.791641        21.5417 
 113   0.0000       0.800331        21.7781 
 114   0.0000       0.818788        22.2804 
 115   0.0000       0.829442        22.5703 
 116   0.0000       0.844547        22.9813 
 117   0.0000       0.854560        23.2538 
 118   0.0000       0.889121        24.1942 
 119   0.0000       0.920108        25.0374 
 120   0.0000       0.920965        25.0607 
 121   0.0000       0.945965        25.7410 
 122   0.0000       0.963417        26.2159 
 123   0.0000       0.988349        26.8943 
 124   0.0000       1.040742        28.3200 
 125   0.0000       1.087766        29.5996 
 126   0.0000       1.114526        30.3278 
 127   0.0000       1.163709        31.6661 
 128   0.0000       1.167869        31.7793 
 129   0.0000       1.182688        32.1826 
 130   0.0000       1.182734        32.1838 
 131   0.0000       1.213897        33.0318 
 132   0.0000       1.227331        33.3974 
 133   0.0000       1.243447        33.8359 
 134   0.0000       1.267790        34.4983 
 135   0.0000       1.296974        35.2925 
 136   0.0000       1.325875        36.0789 
 137   0.0000       1.380582        37.5675 
 138   0.0000       1.399236        38.0751 
 139   0.0000       1.424035        38.7500 
 140   0.0000       1.436431        39.0873 
 141   0.0000       1.440968        39.2107 
 142   0.0000       1.444295        39.3013 
 143   0.0000       1.488154        40.4947 
 144   0.0000       1.506344        40.9897 
 145   0.0000       1.593579        43.3635 
 146   0.0000       1.597316        43.4652 
 147   0.0000       1.605014        43.6747 
 148   0.0000       1.656309        45.0704 
 149   0.0000       1.686009        45.8786 
 150   0.0000       1.696859        46.1739 
 151   0.0000       2.113738        57.5177 
 152   0.0000       2.125205        57.8298 
 153   0.0000       2.135369        58.1064 
 154   0.0000       2.140138        58.2361 
 155   0.0000       2.177541        59.2539 
 156   0.0000       2.271387        61.8076 
 157   0.0000       2.329842        63.3982 
 158   0.0000       2.330122        63.4058 
 159   0.0000       2.369817        64.4860 
 160   0.0000       2.437103        66.3169 
 161   0.0000       2.514472        68.4223 
 162   0.0000       2.580455        70.2178 
 163   0.0000       2.622790        71.3697 
 164   0.0000       2.627527        71.4986 
 165   0.0000       2.634072        71.6767 
 166   0.0000       2.786302        75.8191 
 167   0.0000       2.844774        77.4102 
 168   0.0000       2.853621        77.6510 
 169   0.0000       2.856701        77.7348 
 170   0.0000       2.906167        79.0808 
 171   0.0000       2.911976        79.2389 
 172   0.0000       2.944376        80.1205 
 173   0.0000       2.978491        81.0489 
 174   0.0000       2.987567        81.2958 
 175   0.0000       3.038663        82.6862 
 176   0.0000       3.052404        83.0601 
 177   0.0000       3.078156        83.7609 
 178   0.0000       3.154822        85.8471 
 179   0.0000       3.230440        87.9047 
 180   0.0000       3.332516        90.6824 
 181   0.0000       3.378490        91.9334 
 182   0.0000       3.413259        92.8795 
 183   0.0000       3.422260        93.1244 
 184   0.0000       3.427035        93.2544 
 185   0.0000       3.468630        94.3862 
 186   0.0000       3.468836        94.3918 
 187   0.0000       3.542719        96.4023 
 188   0.0000       3.553547        96.6969 
 189   0.0000       3.602883        98.0394 
 190   0.0000       3.657369        99.5221 
 191   0.0000       3.678126       100.0869 
 192   0.0000       3.704213       100.7968 
 193   0.0000       3.720511       101.2403 
 194   0.0000       3.757719       102.2527 
 195   0.0000       3.793365       103.2227 
 196   0.0000       3.956684       107.6668 
 197   0.0000       3.960943       107.7827 
 198   0.0000       4.029620       109.6515 
 199   0.0000       4.211414       114.5984 
 200   0.0000       4.284479       116.5866 
 201   0.0000       4.476229       121.8044 
 202   0.0000       4.850090       131.9777 
 203   0.0000       4.852728       132.0495 
 204   0.0000       4.872817       132.5961 
 205   0.0000       4.881488       132.8320 
 206   0.0000       4.974862       135.3729 
 207   0.0000       4.978714       135.4777 
 208   0.0000       4.984241       135.6281 
 209   0.0000       5.197025       141.4182 
 210   0.0000       5.197262       141.4247 
 211   0.0000       5.306285       144.3914 
 212   0.0000       5.335946       145.1985 
 213   0.0000       5.353865       145.6861 
 214   0.0000       5.430119       147.7611 
 215   0.0000       5.469772       148.8401 
 216   0.0000       5.647676       153.6811 
 217   0.0000       5.672168       154.3475 
 218   0.0000       5.774757       157.1391 
 219   0.0000       5.789954       157.5527 
 220   0.0000       6.041244       164.3906 
 221   0.0000       6.239221       169.7778 
 222   0.0000       6.280372       170.8976 
 223   0.0000       6.320604       171.9924 
 224   0.0000       6.668047       181.4468 
 225   0.0000       7.059360       192.0950 
 226   0.0000       7.410881       201.6603 
 227   0.0000       7.413240       201.7245 
 228   0.0000       7.418548       201.8690 
 229   0.0000       7.516117       204.5240 
 230   0.0000       7.600870       206.8302 
 231   0.0000       7.621189       207.3831 
 232   0.0000       7.778941       211.6757 
 233   0.0000       7.927978       215.7313 
 234   0.0000       7.967769       216.8140 
 235   0.0000       8.414726       228.9763 
 236   0.0000       8.445286       229.8079 
 237   0.0000       8.469099       230.4559 
 238   0.0000       8.479252       230.7322 
 239   0.0000       8.817826       239.9453 
 240   0.0000       8.819871       240.0009 
 241   0.0000       8.861738       241.1402 
 242   0.0000       8.868278       241.3181 
 243   0.0000       9.033421       245.8119 
 244   0.0000       9.067068       246.7275 
 245   0.0000       9.074959       246.9422 
 246   0.0000       9.155365       249.1302 
 247   0.0000       9.208513       250.5764 
 248   0.0000       9.272711       252.3233 
 249   0.0000       9.548640       259.8317 
 250   0.0000       9.570012       260.4133 
 251   0.0000      10.333686       281.1939 
 252   0.0000      10.662752       290.1482 
 253   0.0000      10.731193       292.0106 
 254   0.0000      10.759912       292.7921 
 255   0.0000      10.923159       297.2343 
 256   0.0000      11.184873       304.3559 
 257   0.0000      11.285507       307.0943 
 258   0.0000      11.542167       314.0783 
 259   0.0000      11.765512       320.1559 
 260   0.0000      12.264590       333.7365 
 261   0.0000      12.272971       333.9645 
 262   0.0000      12.317223       335.1687 
 263   0.0000      12.325080       335.3825 
 264   0.0000      12.534561       341.0828 
 265   0.0000      12.543045       341.3136 
 266   0.0000      12.614406       343.2554 
 267   0.0000      12.735155       346.5412 
 268   0.0000      12.907050       351.2187 
 269   0.0000      12.936959       352.0325 
 270   0.0000      12.970821       352.9540 
 271   0.0000      13.119687       357.0048 
 272   0.0000      13.346903       363.1877 
 273   0.0000      13.511748       367.6734 
 274   0.0000      16.093593       437.9289 
 275   0.0000      16.095548       437.9821 
 276   0.0000      16.098400       438.0597 
 277   0.0000      16.521849       449.5824 
 278   0.0000      16.717089       454.8951 
 279   0.0000      16.724246       455.0899 
 280   0.0000      16.724445       455.0953 
 281   0.0000      16.725106       455.1133 
 282   0.0000      16.727419       455.1762 
 283   0.0000      16.749631       455.7806 
 284   0.0000      16.777087       456.5277 
 285   0.0000      16.786113       456.7734 
 286   0.0000      16.873521       459.1518 
 287   0.0000      16.967109       461.6985 
 288   0.0000      16.989686       462.3129 
 289   0.0000      17.102596       465.3853 
 290   0.0000      17.145375       466.5494 
 291   0.0000      17.649875       480.2775 
 292   0.0000      17.695987       481.5323 
 293   0.0000      17.704014       481.7507 
 294   0.0000      17.717054       482.1055 
 295   0.0000      17.857319       485.9224 
 296   0.0000      18.873288       513.5683 
 297   0.0000      23.115110       628.9941 
 298   0.0000      23.250575       632.6803 
 299   0.0000      23.270924       633.2340 
 300   0.0000      23.307034       634.2166 
 301   0.0000      23.333282       634.9309 
 302   0.0000      23.966239       652.1545 
 303   0.0000      24.886905       677.2071 
 304   0.0000      39.574664      1076.8813 
 305   0.0000      39.729587      1081.0970 
 306   0.0000      58.942802      1603.9152 
 307   0.0000      58.946710      1604.0215 
 308   0.0000      59.026297      1606.1872 
 309   0.0000      59.188706      1610.6066 
 310   0.0000      59.762268      1626.2140 
 311   0.0000      90.887484      2473.1742 
 312   0.0000      90.901537      2473.5566 
 313   0.0000      90.927066      2474.2513 
 314   0.0000      90.929053      2474.3053 
 315   0.0000      91.390139      2486.8521 
 316   0.0000      91.430603      2487.9532 

                 SPIN DOWN ORBITALS
  NO   OCC          E(Eh)            E(eV) 
   0   1.0000     -76.296094     -2076.1223 
   1   1.0000      -6.314006      -171.8128 
   2   1.0000      -4.529742      -123.2605 
   3   1.0000      -4.527048      -123.1872 
   4   1.0000      -4.526701      -123.1778 
   5   1.0000      -0.553271       -15.0553 
   6   1.0000      -0.342870        -9.3300 
   7   1.0000      -0.266167        -7.2428 
   8   0.0000      -0.154181        -4.1955 
   9   0.0000      -0.018338        -0.4990 
  10   0.0000      -0.012388        -0.3371 
  11   0.0000       0.015399         0.4190 
  12   0.0000       0.017481         0.4757 
  13   0.0000       0.023971         0.6523 
  14   0.0000       0.037354         1.0165 
  15   0.0000       0.044087         1.1997 
  16   0.0000       0.051377         1.3981 
  17   0.0000       0.061193         1.6652 
  18   0.0000       0.066455         1.8083 
  19   0.0000       0.067735         1.8432 
  20   0.0000       0.079545         2.1645 
  21   0.0000       0.088631         2.4118 
  22   0.0000       0.098133         2.6703 
  23   0.0000       0.121000         3.2926 
  24   0.0000       0.121938         3.3181 
  25   0.0000       0.128463         3.4957 
  26   0.0000       0.133110         3.6221 
  27   0.0000       0.136139         3.7045 
  28   0.0000       0.138946         3.7809 
  29   0.0000       0.139597         3.7986 
  30   0.0000       0.151558         4.1241 
  31   0.0000       0.154831         4.2132 
  32   0.0000       0.164376         4.4729 
  33   0.0000       0.176155         4.7934 
  34   0.0000       0.180816         4.9203 
  35   0.0000       0.198006         5.3880 
  36   0.0000       0.219661         5.9773 
  37   0.0000       0.225432         6.1343 
  38   0.0000       0.225921         6.1476 
  39   0.0000       0.240223         6.5368 
  40   0.0000       0.243306         6.6207 
  41   0.0000       0.245391         6.6774 
  42   0.0000       0.248722         6.7681 
  43   0.0000       0.263197         7.1620 
  44   0.0000       0.267024         7.2661 
  45   0.0000       0.269626         7.3369 
  46   0.0000       0.271998         7.4014 
  47   0.0000       0.273528         7.4431 
  48   0.0000       0.281239         7.6529 
  49   0.0000       0.290765         7.9121 
  50   0.0000       0.293292         7.9809 
  51   0.0000       0.297273         8.0892 
  52   0.0000       0.300239         8.1699 
  53   0.0000       0.334182         9.0936 
  54   0.0000       0.346844         9.4381 
  55   0.0000       0.359169         9.7735 
  56   0.0000       0.359504         9.7826 
  57   0.0000       0.379326        10.3220 
  58   0.0000       0.383732        10.4419 
  59   0.0000       0.393389        10.7047 
  60   0.0000       0.402682        10.9575 
  61   0.0000       0.411445        11.1960 
  62   0.0000       0.412399        11.2220 
  63   0.0000       0.418163        11.3788 
  64   0.0000       0.428857        11.6698 
  65   0.0000       0.438807        11.9405 
  66   0.0000       0.444087        12.0842 
  67   0.0000       0.445019        12.1096 
  68   0.0000       0.451758        12.2929 
  69   0.0000       0.459980        12.5167 
  70   0.0000       0.469458        12.7746 
  71   0.0000       0.470863        12.8128 
  72   0.0000       0.473856        12.8943 
  73   0.0000       0.485612        13.2142 
  74   0.0000       0.486594        13.2409 
  75   0.0000       0.495584        13.4855 
  76   0.0000       0.496037        13.4978 
  77   0.0000       0.513778        13.9806 
  78   0.0000       0.517118        14.0715 
  79   0.0000       0.527324        14.3492 
  80   0.0000       0.540489        14.7074 
  81   0.0000       0.548856        14.9351 
  82   0.0000       0.555607        15.1188 
  83   0.0000       0.574232        15.6257 
  84   0.0000       0.587706        15.9923 
  85   0.0000       0.590050        16.0561 
  86   0.0000       0.601888        16.3782 
  87   0.0000       0.604753        16.4562 
  88   0.0000       0.611991        16.6531 
  89   0.0000       0.612625        16.6704 
  90   0.0000       0.631913        17.1952 
  91   0.0000       0.632737        17.2176 
  92   0.0000       0.633010        17.2251 
  93   0.0000       0.635132        17.2828 
  94   0.0000       0.646827        17.6011 
  95   0.0000       0.647426        17.6173 
  96   0.0000       0.662883        18.0380 
  97   0.0000       0.667386        18.1605 
  98   0.0000       0.677053        18.4236 
  99   0.0000       0.678723        18.4690 
 100   0.0000       0.680005        18.5039 
 101   0.0000       0.692378        18.8406 
 102   0.0000       0.720900        19.6167 
 103   0.0000       0.724327        19.7099 
 104   0.0000       0.747636        20.3442 
 105   0.0000       0.749107        20.3842 
 106   0.0000       0.753207        20.4958 
 107   0.0000       0.754913        20.5422 
 108   0.0000       0.766709        20.8632 
 109   0.0000       0.767263        20.8783 
 110   0.0000       0.772485        21.0204 
 111   0.0000       0.774682        21.0802 
 112   0.0000       0.796907        21.6850 
 113   0.0000       0.812542        22.1104 
 114   0.0000       0.827749        22.5242 
 115   0.0000       0.831850        22.6358 
 116   0.0000       0.847924        23.0732 
 117   0.0000       0.864737        23.5307 
 118   0.0000       0.893700        24.3188 
 119   0.0000       0.929594        25.2955 
 120   0.0000       0.948095        25.7990 
 121   0.0000       0.970514        26.4090 
 122   0.0000       0.989186        26.9171 
 123   0.0000       0.992832        27.0163 
 124   0.0000       1.060289        28.8519 
 125   0.0000       1.106106        30.0987 
 126   0.0000       1.120232        30.4831 
 127   0.0000       1.182942        32.1895 
 128   0.0000       1.203688        32.7540 
 129   0.0000       1.205244        32.7964 
 130   0.0000       1.208497        32.8849 
 131   0.0000       1.234824        33.6013 
 132   0.0000       1.252470        34.0814 
 133   0.0000       1.252938        34.0942 
 134   0.0000       1.283891        34.9365 
 135   0.0000       1.318282        35.8723 
 136   0.0000       1.351977        36.7892 
 137   0.0000       1.390404        37.8348 
 138   0.0000       1.404586        38.2207 
 139   0.0000       1.435756        39.0689 
 140   0.0000       1.443787        39.2874 
 141   0.0000       1.447252        39.3817 
 142   0.0000       1.447809        39.3969 
 143   0.0000       1.497247        40.7422 
 144   0.0000       1.508790        41.0563 
 145   0.0000       1.607127        43.7322 
 146   0.0000       1.611242        43.8441 
 147   0.0000       1.622201        44.1423 
 148   0.0000       1.679581        45.7037 
 149   0.0000       1.697201        46.1832 
 150   0.0000       1.700546        46.2742 
 151   0.0000       2.144898        58.3656 
 152   0.0000       2.174699        59.1766 
 153   0.0000       2.182182        59.3802 
 154   0.0000       2.184934        59.4551 
 155   0.0000       2.193365        59.6845 
 156   0.0000       2.286700        62.2243 
 157   0.0000       2.344872        63.8072 
 158   0.0000       2.358231        64.1707 
 159   0.0000       2.402691        65.3806 
 160   0.0000       2.465135        67.0797 
 161   0.0000       2.526079        68.7381 
 162   0.0000       2.602310        70.8125 
 163   0.0000       2.642761        71.9132 
 164   0.0000       2.656034        72.2744 
 165   0.0000       2.666171        72.5502 
 166   0.0000       2.817848        76.6775 
 167   0.0000       2.852222        77.6129 
 168   0.0000       2.879214        78.3474 
 169   0.0000       2.892243        78.7019 
 170   0.0000       2.942718        80.0754 
 171   0.0000       2.945459        80.1500 
 172   0.0000       2.973245        80.9061 
 173   0.0000       2.994056        81.4724 
 174   0.0000       3.003572        81.7314 
 175   0.0000       3.047953        82.9390 
 176   0.0000       3.064048        83.3770 
 177   0.0000       3.093389        84.1754 
 178   0.0000       3.161728        86.0350 
 179   0.0000       3.276665        89.1626 
 180   0.0000       3.336033        90.7781 
 181   0.0000       3.382672        92.0472 
 182   0.0000       3.420338        93.0721 
 183   0.0000       3.426848        93.2493 
 184   0.0000       3.439417        93.5913 
 185   0.0000       3.471965        94.4770 
 186   0.0000       3.478969        94.6675 
 187   0.0000       3.545068        96.4662 
 188   0.0000       3.570414        97.1559 
 189   0.0000       3.608889        98.2029 
 190   0.0000       3.677390       100.0669 
 191   0.0000       3.678672       100.1018 
 192   0.0000       3.706835       100.8681 
 193   0.0000       3.724269       101.3425 
 194   0.0000       3.761969       102.3684 
 195   0.0000       3.803746       103.5052 
 196   0.0000       3.975216       108.1711 
 197   0.0000       3.975982       108.1920 
 198   0.0000       4.036873       109.8489 
 199   0.0000       4.243119       115.4611 
 200   0.0000       4.297723       116.9470 
 201   0.0000       4.486779       122.0915 
 202   0.0000       4.861216       132.2804 
 203   0.0000       4.865211       132.3891 
 204   0.0000       4.898124       133.2847 
 205   0.0000       4.900872       133.3595 
 206   0.0000       4.998041       136.0036 
 207   0.0000       5.002746       136.1316 
 208   0.0000       5.024167       136.7145 
 209   0.0000       5.204476       141.6210 
 210   0.0000       5.219021       142.0168 
 211   0.0000       5.325418       144.9120 
 212   0.0000       5.369906       146.1226 
 213   0.0000       5.399200       146.9197 
 214   0.0000       5.480564       149.1337 
 215   0.0000       5.508469       149.8931 
 216   0.0000       5.686044       154.7251 
 217   0.0000       5.712348       155.4409 
 218   0.0000       5.795707       157.7092 
 219   0.0000       5.798191       157.7768 
 220   0.0000       6.072490       165.2409 
 221   0.0000       6.272057       170.6713 
 222   0.0000       6.292241       171.2206 
 223   0.0000       6.322609       172.0469 
 224   0.0000       6.679276       181.7523 
 225   0.0000       7.085483       192.8058 
 226   0.0000       7.442282       202.5148 
 227   0.0000       7.445672       202.6070 
 228   0.0000       7.451329       202.7610 
 229   0.0000       7.550344       205.4553 
 230   0.0000       7.625049       207.4881 
 231   0.0000       7.647488       208.0987 
 232   0.0000       7.776271       211.6031 
 233   0.0000       7.937928       216.0020 
 234   0.0000       7.968720       216.8399 
 235   0.0000       8.416051       229.0124 
 236   0.0000       8.446920       229.8524 
 237   0.0000       8.464871       230.3408 
 238   0.0000       8.475097       230.6191 
 239   0.0000       8.815572       239.8839 
 240   0.0000       8.817169       239.9274 
 241   0.0000       8.859687       241.0843 
 242   0.0000       8.865157       241.2332 
 243   0.0000       9.033324       245.8092 
 244   0.0000       9.065769       246.6921 
 245   0.0000       9.075877       246.9672 
 246   0.0000       9.157025       249.1753 
 247   0.0000       9.205296       250.4888 
 248   0.0000       9.268515       252.2091 
 249   0.0000       9.547161       259.7915 
 250   0.0000       9.568597       260.3748 
 251   0.0000      10.339464       281.3511 
 252   0.0000      10.667864       290.2873 
 253   0.0000      10.737055       292.1701 
 254   0.0000      10.771263       293.1010 
 255   0.0000      10.929184       297.3982 
 256   0.0000      11.182944       304.3034 
 257   0.0000      11.284073       307.0552 
 258   0.0000      11.543128       314.1045 
 259   0.0000      11.768576       320.2392 
 260   0.0000      12.261587       333.6547 
 261   0.0000      12.270265       333.8909 
 262   0.0000      12.313954       335.0797 
 263   0.0000      12.321983       335.2982 
 264   0.0000      12.531245       340.9925 
 265   0.0000      12.539738       341.2236 
 266   0.0000      12.611345       343.1721 
 267   0.0000      12.731025       346.4288 
 268   0.0000      12.905214       351.1687 
 269   0.0000      12.935423       351.9908 
 270   0.0000      12.965620       352.8124 
 271   0.0000      13.115161       356.8817 
 272   0.0000      13.343056       363.0830 
 273   0.0000      13.508672       367.5897 
 274   0.0000      16.094982       437.9667 
 275   0.0000      16.101442       438.1425 
 276   0.0000      16.106134       438.2702 
 277   0.0000      16.531264       449.8386 
 278   0.0000      16.713092       454.7864 
 279   0.0000      16.720549       454.9893 
 280   0.0000      16.720641       454.9918 
 281   0.0000      16.721315       455.0101 
 282   0.0000      16.723698       455.0749 
 283   0.0000      16.745614       455.6713 
 284   0.0000      16.773089       456.4189 
 285   0.0000      16.782125       456.6648 
 286   0.0000      16.870789       459.0775 
 287   0.0000      16.963182       461.5917 
 288   0.0000      16.986807       462.2345 
 289   0.0000      17.098853       465.2835 
 290   0.0000      17.141840       466.4532 
 291   0.0000      17.652517       480.3494 
 292   0.0000      17.690207       481.3750 
 293   0.0000      17.703270       481.7305 
 294   0.0000      17.716331       482.0859 
 295   0.0000      17.853251       485.8117 
 296   0.0000      18.872807       513.5552 
 297   0.0000      23.117466       629.0582 
 298   0.0000      23.245987       632.5555 
 299   0.0000      23.266355       633.1097 
 300   0.0000      23.300596       634.0415 
 301   0.0000      23.327593       634.7761 
 302   0.0000      23.960841       652.0076 
 303   0.0000      24.888221       677.2429 
 304   0.0000      39.570394      1076.7652 
 305   0.0000      39.725416      1080.9835 
 306   0.0000      58.954731      1604.2398 
 307   0.0000      58.958421      1604.3402 
 308   0.0000      59.028632      1606.2507 
 309   0.0000      59.203809      1611.0175 
 310   0.0000      59.764552      1626.2761 
 311   0.0000      90.881441      2473.0097 
 312   0.0000      90.895497      2473.3922 
 313   0.0000      90.920505      2474.0727 
 314   0.0000      90.922496      2474.1269 
 315   0.0000      91.383810      2486.6799 
 316   0.0000      91.424307      2487.7819 

                    ********************************
                    * MULLIKEN POPULATION ANALYSIS *
                    ********************************

--------------------------------------------
MULLIKEN ATOMIC CHARGES AND SPIN POPULATIONS
--------------------------------------------
   0 P :   -0.007126    1.093100
   1 H :    0.003562   -0.046554
   2 H :    0.003563   -0.046546
Sum of atomic charges         :    0.0000000
Sum of atomic spin populations:    1.0000000

-----------------------------------------------------
MULLIKEN REDUCED ORBITAL CHARGES AND SPIN POPULATIONS
-----------------------------------------------------
CHARGE
  0 P s       :     5.864091  s :     5.864091
      pz      :     3.187782  p :     9.051091
      px      :     2.946445
      py      :     2.916864
      dz2     :     0.007504  d :     0.086950
      dxz     :     0.001410
      dyz     :     0.064863
      dx2y2   :     0.013174
      dxy     :    -0.000000
      f0      :     0.000274  f :     0.004225
      f+1     :    -0.000002
      f-1     :     0.001470
      f+2     :     0.001903
      f-2     :    -0.000000
      f+3     :    -0.000037
      f-3     :     0.000618
      g0      :     0.000110  g :     0.000644
      g+1     :     0.000001
      g-1     :    -0.000002
      g+2     :     0.000282
      g-2     :     0.000000
      g+3     :     0.000026
      g-3     :     0.000229
      g+4     :    -0.000002
      g-4     :     0.000000
      h0      :     0.000027  h :     0.000124
      h+1     :     0.000000
      h-1     :     0.000020
      h+2     :     0.000027
      h-2     :    -0.000000
      h+3     :     0.000008
      h-3     :     0.000044
      h+4     :    -0.000002
      h-4     :    -0.000000
      h+5     :     0.000001
      h-5     :    -0.000000
  1 H s       :     0.954205  s :     0.954205
      pz      :     0.018595  p :     0.047950
      px      :     0.024856
      py      :     0.004498
      dz2     :     0.002380  d :     0.000762
      dxz     :     0.002347
      dyz     :    -0.004876
      dx2y2   :    -0.000099
      dxy     :     0.001009
      f0      :    -0.000103  f :    -0.005478
      f+1     :    -0.000089
      f-1     :    -0.001682
      f+2     :    -0.001076
      f-2     :    -0.000525
      f+3     :    -0.001104
      f-3     :    -0.000899
      g0      :    -0.000112  g :    -0.001002
      g+1     :    -0.000003
      g-1     :    -0.000044
      g+2     :    -0.000156
      g-2     :    -0.000065
      g+3     :    -0.000185
      g-3     :    -0.000088
      g+4     :    -0.000181
      g-4     :    -0.000167
  2 H s       :     0.954206  s :     0.954206
      pz      :     0.018595  p :     0.047949
      px      :     0.024856
      py      :     0.004498
      dz2     :     0.002380  d :     0.000761
      dxz     :     0.002347
      dyz     :    -0.004877
      dx2y2   :    -0.000099
      dxy     :     0.001009
      f0      :    -0.000102  f :    -0.005478
      f+1     :    -0.000089
      f-1     :    -0.001682
      f+2     :    -0.001076
      f-2     :    -0.000525
      f+3     :    -0.001104
      f-3     :    -0.000899
      g0      :    -0.000112  g :    -0.001002
      g+1     :    -0.000003
      g-1     :    -0.000044
      g+2     :    -0.000156
      g-2     :    -0.000065
      g+3     :    -0.000185
      g-3     :    -0.000088
      g+4     :    -0.000181
      g-4     :    -0.000167

SPIN
  0 P s       :     0.061714  s :     0.061714
      pz      :     0.026893  p :     1.021524
      px      :     0.946439
      py      :     0.048192
      dz2     :     0.002913  d :     0.012284
      dxz     :     0.001407
      dyz     :     0.006071
      dx2y2   :     0.001892
      dxy     :    -0.000000
      f0      :     0.000394  f :    -0.002399
      f+1     :    -0.000002
      f-1     :    -0.000351
      f+2     :    -0.001414
      f-2     :    -0.000000
      f+3     :    -0.000037
      f-3     :    -0.000989
      g0      :     0.000066  g :    -0.000054
      g+1     :     0.000001
      g-1     :    -0.000021
      g+2     :    -0.000020
      g-2     :     0.000000
      g+3     :     0.000026
      g-3     :    -0.000077
      g+4     :    -0.000028
      g-4     :     0.000000
      h0      :    -0.000004  h :     0.000030
      h+1     :     0.000000
      h-1     :     0.000004
      h+2     :     0.000012
      h-2     :     0.000000
      h+3     :     0.000008
      h-3     :     0.000010
      h+4     :    -0.000001
      h-4     :    -0.000000
      h+5     :     0.000001
      h-5     :     0.000000
  1 H s       :    -0.068764  s :    -0.068764
      pz      :    -0.006120  p :     0.019151
      px      :     0.024791
      py      :     0.000480
      dz2     :     0.000294  d :     0.005191
      dxz     :     0.002318
      dyz     :     0.000436
      dx2y2   :     0.001128
      dxy     :     0.001014
      f0      :    -0.000100  f :    -0.001620
      f+1     :    -0.000092
      f-1     :     0.000432
      f+2     :    -0.000059
      f-2     :    -0.000481
      f+3     :    -0.001082
      f-3     :    -0.000238
      g0      :     0.000046  g :    -0.000512
      g+1     :    -0.000003
      g-1     :    -0.000032
      g+2     :    -0.000044
      g-2     :    -0.000055
      g+3     :    -0.000169
      g-3     :    -0.000009
      g+4     :    -0.000084
      g-4     :    -0.000162
  2 H s       :    -0.068763  s :    -0.068763
      pz      :    -0.006117  p :     0.019155
      px      :     0.024791
      py      :     0.000481
      dz2     :     0.000294  d :     0.005193
      dxz     :     0.002318
      dyz     :     0.000438
      dx2y2   :     0.001128
      dxy     :     0.001014
      f0      :    -0.000100  f :    -0.001619
      f+1     :    -0.000092
      f-1     :     0.000432
      f+2     :    -0.000059
      f-2     :    -0.000481
      f+3     :    -0.001082
      f-3     :    -0.000238
      g0      :     0.000046  g :    -0.000512
      g+1     :    -0.000003
      g-1     :    -0.000032
      g+2     :    -0.000044
      g-2     :    -0.000055
      g+3     :    -0.000169
      g-3     :    -0.000009
      g+4     :    -0.000084
      g-4     :    -0.000162


                     *******************************
                     * LOEWDIN POPULATION ANALYSIS *
                     *******************************

-------------------------------------------
LOEWDIN ATOMIC CHARGES AND SPIN POPULATIONS
-------------------------------------------
   0 P :    1.620829    0.619268
   1 H :   -0.810414    0.190366
   2 H :   -0.810414    0.190366

----------------------------------------------------
LOEWDIN REDUCED ORBITAL CHARGES AND SPIN POPULATIONS
----------------------------------------------------
CHARGE
  0 P s       :     4.862204  s :     4.862204
      pz      :     2.978117  p :     8.321954
      px      :     2.599464
      py      :     2.744372
      dz2     :     0.007475  d :     0.152681
      dxz     :     0.000922
      dyz     :     0.116889
      dx2y2   :     0.027395
      dxy     :    -0.000000
      f0      :     0.003093  f :     0.035417
      f+1     :     0.000635
      f-1     :     0.015841
      f+2     :     0.013336
      f-2     :     0.000000
      f+3     :     0.000926
      f-3     :     0.001586
      g0      :     0.000961  g :     0.005842
      g+1     :     0.000003
      g-1     :     0.000892
      g+2     :     0.001929
      g-2     :     0.000000
      g+3     :     0.000384
      g-3     :     0.001201
      g+4     :     0.000472
      g-4     :     0.000000
      h0      :     0.000107  h :     0.001074
      h+1     :     0.000002
      h-1     :     0.000094
      h+2     :     0.000179
      h-2     :     0.000000
      h+3     :     0.000089
      h-3     :     0.000383
      h+4     :     0.000172
      h-4     :     0.000000
      h+5     :     0.000010
      h-5     :     0.000039
  1 H s       :     0.861123  s :     0.861123
      pz      :     0.203816  p :     0.461120
      px      :     0.090679
      py      :     0.166624
      dz2     :     0.084681  d :     0.322749
      dxz     :     0.032776
      dyz     :     0.096803
      dx2y2   :     0.068262
      dxy     :     0.040227
      f0      :     0.006579  f :     0.126019
      f+1     :     0.002622
      f-1     :     0.052086
      f+2     :     0.017925
      f-2     :     0.016897
      f+3     :     0.007099
      f-3     :     0.022810
      g0      :     0.002650  g :     0.039405
      g+1     :     0.000010
      g-1     :     0.006758
      g+2     :     0.011516
      g-2     :     0.002882
      g+3     :     0.004727
      g-3     :     0.003074
      g+4     :     0.006924
      g-4     :     0.000863
  2 H s       :     0.861123  s :     0.861123
      pz      :     0.203816  p :     0.461120
      px      :     0.090679
      py      :     0.166624
      dz2     :     0.084681  d :     0.322749
      dxz     :     0.032776
      dyz     :     0.096803
      dx2y2   :     0.068262
      dxy     :     0.040227
      f0      :     0.006579  f :     0.126019
      f+1     :     0.002622
      f-1     :     0.052086
      f+2     :     0.017925
      f-2     :     0.016897
      f+3     :     0.007099
      f-3     :     0.022810
      g0      :     0.002650  g :     0.039405
      g+1     :     0.000010
      g-1     :     0.006758
      g+2     :     0.011516
      g-2     :     0.002882
      g+3     :     0.004727
      g-3     :     0.003074
      g+4     :     0.006924
      g-4     :     0.000863

SPIN
  0 P s       :     0.005688  s :     0.005688
      pz      :    -0.002986  p :     0.612988
      px      :     0.603820
      py      :     0.012153
      dz2     :     0.001213  d :     0.002378
      dxz     :     0.000910
      dyz     :    -0.002756
      dx2y2   :     0.003011
      dxy     :     0.000000
      f0      :     0.000773  f :    -0.001870
      f+1     :     0.000632
      f-1     :    -0.001191
      f+2     :    -0.002220
      f-2     :     0.000000
      f+3     :     0.000919
      f-3     :    -0.000783
      g0      :     0.000011  g :     0.000011
      g+1     :     0.000003
      g-1     :    -0.000025
      g+2     :    -0.000164
      g-2     :    -0.000000
      g+3     :     0.000373
      g-3     :    -0.000163
      g+4     :    -0.000023
      g-4     :     0.000000
      h0      :    -0.000005  h :     0.000072
      h+1     :     0.000002
      h-1     :    -0.000002
      h+2     :    -0.000003
      h-2     :     0.000000
      h+3     :     0.000084
      h-3     :    -0.000012
      h+4     :     0.000001
      h-4     :     0.000000
      h+5     :     0.000009
      h-5     :    -0.000002
  1 H s       :    -0.010740  s :    -0.010740
      pz      :     0.000617  p :     0.093905
      px      :     0.090542
      py      :     0.002747
      dz2     :    -0.000555  d :     0.073797
      dxz     :     0.032200
      dyz     :     0.002182
      dx2y2   :     0.000368
      dxy     :     0.039602
      f0      :     0.000080  f :     0.025880
      f+1     :     0.002569
      f-1     :     0.000259
      f+2     :    -0.000178
      f-2     :     0.016617
      f+3     :     0.006989
      f-3     :    -0.000456
      g0      :     0.000362  g :     0.007524
      g+1     :     0.000008
      g-1     :    -0.000045
      g+2     :    -0.000426
      g-2     :     0.002745
      g+3     :     0.004537
      g-3     :    -0.000126
      g+4     :    -0.000346
      g-4     :     0.000815
  2 H s       :    -0.010740  s :    -0.010740
      pz      :     0.000617  p :     0.093905
      px      :     0.090542
      py      :     0.002747
      dz2     :    -0.000555  d :     0.073797
      dxz     :     0.032200
      dyz     :     0.002182
      dx2y2   :     0.000368
      dxy     :     0.039602
      f0      :     0.000080  f :     0.025880
      f+1     :     0.002569
      f-1     :     0.000259
      f+2     :    -0.000178
      f-2     :     0.016617
      f+3     :     0.006989
      f-3     :    -0.000456
      g0      :     0.000362  g :     0.007524
      g+1     :     0.000008
      g-1     :    -0.000045
      g+2     :    -0.000426
      g-2     :     0.002745
      g+3     :     0.004537
      g-3     :    -0.000126
      g+4     :    -0.000346
      g-4     :     0.000815


                      *****************************
                      * MAYER POPULATION ANALYSIS *
                      *****************************

  NA   - Mulliken gross atomic population
  ZA   - Total nuclear charge
  QA   - Mulliken gross atomic charge
  VA   - Mayer's total valence
  BVA  - Mayer's bonded valence
  FA   - Mayer's free valence

  ATOM       NA         ZA         QA         VA         BVA        FA
  0 P     15.0071    15.0000    -0.0071     2.8877     1.9711     0.9166
  1 H      0.9964     1.0000     0.0036     1.0098     1.0042     0.0056
  2 H      0.9964     1.0000     0.0036     1.0098     1.0042     0.0056

  Mayer bond orders larger than 0.1
B(  0-P ,  1-H ) :   0.9856 B(  0-P ,  2-H ) :   0.9856 

-------
TIMINGS
-------

Total SCF time: 0 days 0 hours 27 min 23 sec 

Total time                  ....    1643.517 sec
Sum of individual times     ....    1642.872 sec  (100.0%)

Fock matrix formation       ....    1636.242 sec  ( 99.6%)
  XC integration            ....      76.020 sec  (  4.6% of F)
    Basis function eval.    ....       6.454 sec  (  8.5% of XC)
    Density eval.           ....      16.483 sec  ( 21.7% of XC)
    XC-Functional eval.     ....       0.933 sec  (  1.2% of XC)
    XC-Potential eval.      ....      51.225 sec  ( 67.4% of XC)
Diagonalization             ....       0.799 sec  (  0.0%)
Density matrix formation    ....       0.017 sec  (  0.0%)
Population analysis         ....       0.073 sec  (  0.0%)
Initial guess               ....       3.448 sec  (  0.2%)
Orbital Transformation      ....       0.000 sec  (  0.0%)
Orbital Orthonormalization  ....       0.000 sec  (  0.0%)
DIIS solution               ....       0.382 sec  (  0.0%)
Grid generation             ....       1.911 sec  (  0.1%)

-------------------------   --------------------
FINAL SINGLE POINT ENERGY      -342.361931341792
-------------------------   --------------------


                            ***************************************
                            *     ORCA property calculations      *
                            ***************************************

                                    ---------------------
                                    Active property flags
                                    ---------------------
   (+) Dipole Moment
   (+) Polarizability


------------------------------------------------------------------------------
                       ORCA ELECTRIC PROPERTIES CALCULATION
------------------------------------------------------------------------------

Dipole Moment Calculation                       ... on
Quadrupole Moment Calculation                   ... off
Polarizability Calculation                      ... Analytic (CP-SCF)
GBWName                                         ... ph2_pbe.gbw
Electron density file                           ... ph2_pbe.scfp.tmp
The origin for moment calculation is the CENTER OF MASS  = ( 0.000000,  0.000000  0.115064)

-------------
DIPOLE MOMENT
-------------
                                X             Y             Z
Electronic contribution:      0.00000      -0.00000      -1.59897
Nuclear contribution   :      0.00000       0.00000       1.80975
                        -----------------------------------------
Total Dipole Moment    :      0.00000      -0.00000       0.21079
                        -----------------------------------------
Magnitude (a.u.)       :      0.21079
Magnitude (Debye)      :      0.53578



--------------------
Rotational spectrum 
--------------------
 
Rotational constants in cm-1:     8.970651     7.991716     4.226467 
Rotational constants in MHz : 268933.348911 239585.603970 126706.307526 

 Dipole components along the rotational axes: 
x,y,z [a.u.] :    -0.000000     0.210786     0.000000 
x,y,z [Debye]:    -0.000000     0.535776     0.000000 

 
Transforming and storing MO dipole integrals   ... done

                ... starting polarizability calculation

Opening the Dipole integral file               ... (ph2_pbe.dmo.tmp) done
Reading Dipole-MO integrals                    ... done
Solving CP-SCF equations                       ... 
------------------------------------------------------------------------------
                           ORCA CP-SCF CALCULATION
------------------------------------------------------------------------------

Input orbitals are from        ... ph2_pbe.gbw
Input Perturbation             ... ph2_pbe.cpv.tmp
Wavefunction output            ... ph2_pbe.cpu.tmp
Perturbation mode              ... Real perturbation (singlet)
Solver                         ... POPLE
Max. number of iterations      ... 200
Convergence tolerance          ... 1.000e-06
Integral handling              ... Direct
Number of perturbations        ... 3
Number of operators            ... 2
Orbital ranges used for CP-SCF:
 Operator 0:  Orbitals   0...  8  to   9...316
 Operator 1:  Orbitals   0...  7  to   8...316
DFT calculation                         ... on
Exchange functional (SCF)               ... PBE
Exchange functional (CP-SCF)            ... PBE
   PBE kappa parameter  XKappa (SCF)    ...  0.804000
   PBE kappa parameter  XKappa (CP-SCF) ...  0.804000
   PBE mue parameter   XMuePBE (SCF)    ...  0.219520
   PBE mue parameter   XMuePBE (CP-SCF) ...  0.219520
Correlation functional (SCF)            ... PBE
Correlation functional (CP-SCF)         ... PBE
   PBE beta parameter CBetaPBE (SCF)    ...  0.066725
   PBE beta parameter CBetaPBE (CP-SCF) ...  0.066725
 LDA part of GGA corr.  LDAOpt (SCF)    ... PW91-LDA
 LDA part of GGA corr.  LDAOpt (CP-SCF) ... PW91-LDA
Variables per vector in CP-SCF ... 5244
Number of vectors sought       ... 3
Recalculating density on grid  ... done
Calculating the xc-kernel      ... done
     CP-SCF ITERATION   0: 
     CP-SCF ITERATION   1:      0.087849943847
     CP-SCF ITERATION   2:      0.003687291819
     CP-SCF ITERATION   3:      0.000202091526
     CP-SCF ITERATION   4:      0.000004247328
     CP-SCF ITERATION   5:      0.000000605970
done
Reading CP-SCF coefficients                    ... done
Doing the polarizability tensor   ... done
Cleaning up                                    ... done

-------------------------
THE POLARIZABILITY TENSOR
-------------------------

The raw cartesian tensor (atomic units):
   29.35636      0.00000     -0.00000  
    0.00000     31.23224     -0.00000  
   -0.00000     -0.00000     32.28222  
diagonalized tensor: 
   29.35636     31.23224     32.28222  

    1.00000     -0.00000     -0.00000  
   -0.00000     -1.00000     -0.00000  
    0.00000     -0.00000      1.00000  

Isotropic polarizability :  30.95694


Timings for individual modules:

Sum of individual times         ...     2881.952 sec (=  48.033 min)
GTO integral calculation        ...        1.200 sec (=   0.020 min)   0.0 %
SCF iterations                  ...     1643.536 sec (=  27.392 min)  57.0 %
Solution of CP-SCF eqns.        ...     1237.215 sec (=  20.620 min)  42.9 %
                             ****ORCA TERMINATED NORMALLY****
TOTAL RUN TIME: 0 days 0 hours 48 minutes 2 seconds 351 msec
