
                                 *****************
                                 * O   R   C   A *
                                 *****************

           --- An Ab Initio, DFT and Semiempirical electronic structure package ---

                  #######################################################
                  #                        -***-                        #
                  #          Department of theory and spectroscopy      #
                  #               Directorship: Frank Neese             #
                  #        Max Planck Institute fuer Kohlenforschung    #
                  #                Kaiser Wilhelm Platz 1               #
                  #                 D-45470 Muelheim/Ruhr               #
                  #                      Germany                        #
                  #                                                     #
                  #                  All rights reserved                #
                  #                        -***-                        #
                  #######################################################


                         Program Version 4.1.2  - RELEASE  -


 With contributions from (in alphabetic order):
   Daniel Aravena         : Magnetic Properties
   Michael Atanasov       : Ab Initio Ligand Field Theory
   Alexander A. Auer      : GIAO ZORA
   Ute Becker             : Parallelization
   Giovanni Bistoni       : ED, Open-shell LED
   Martin Brehm           : Molecular dynamics
   Dmytro Bykov           : SCF Hessian
   Vijay G. Chilkuri      : MRCI spin determinant printing
   Dipayan Datta          : RHF DLPNO-CCSD density
   Achintya Kumar Dutta   : EOM-CC, STEOM-CC
   Dmitry Ganyushin       : Spin-Orbit,Spin-Spin,Magnetic field MRCI
   Miquel Garcia          : C-PCM Hessian
   Yang Guo               : DLPNO-NEVPT2, CIM, IAO-localization
   Andreas Hansen         : Spin unrestricted coupled pair/coupled cluster methods
   Benjamin Helmich-Paris : CASSCF linear response (MC-RPA)
   Lee Huntington         : MR-EOM, pCC
   Robert Izsak           : Overlap fitted RIJCOSX, COSX-SCS-MP3, EOM
   Christian Kollmar      : KDIIS, OOCD, Brueckner-CCSD(T), CCSD density
   Simone Kossmann        : Meta GGA functionals, TD-DFT gradient, OOMP2, MP2 Hessian
   Martin Krupicka        : AUTO-CI
   Lucas Lang             : DCDCAS
   Dagmar Lenk            : GEPOL surface, SMD
   Dimitrios Liakos       : Extrapolation schemes; parallel MDCI
   Dimitrios Manganas     : ROCIS; embedding schemes
   Dimitrios Pantazis     : SARC Basis sets
   Taras Petrenko         : DFT Hessian,TD-DFT gradient, ASA, ECA, R-Raman, ABS, FL, XAS/XES, NRVS
   Peter Pinski           : DLPNO-MP2, DLPNO-MP2 Gradient
   Christoph Reimann      : Effective Core Potentials
   Marius Retegan         : Local ZFS, SOC
   Christoph Riplinger    : Optimizer, TS searches, QM/MM, DLPNO-CCSD(T), (RO)-DLPNO pert. Triples
   Tobias Risthaus        : Range-separated hybrids, TD-DFT gradient, RPA, STAB
   Michael Roemelt        : Restricted open shell CIS
   Masaaki Saitow         : Open-shell DLPNO
   Barbara Sandhoefer     : DKH picture change effects
   Avijit Sen             : IP-ROCIS
   Kantharuban Sivalingam : CASSCF convergence, NEVPT2, FIC-MRCI
   Bernardo de Souza      : ESD, SOC TD-DFT
   Georgi Stoychev        : AutoAux, RI-MP2 NMR
   Willem Van den Heuvel  : Paramagnetic NMR
   Boris Wezisla          : Elementary symmetry handling
   Frank Wennmohs         : Technical directorship


 We gratefully acknowledge several colleagues who have allowed us to
 interface, adapt or use parts of their codes:
   Stefan Grimme, W. Hujo, H. Kruse,             : VdW corrections, initial TS optimization,
                  C. Bannwarth                     DFT functionals, gCP, sTDA/sTD-DF
   Ed Valeev                                     : LibInt (2-el integral package), F12 methods
   Garnet Chan, S. Sharma, J. Yang, R. Olivares  : DMRG
   Ulf Ekstrom                                   : XCFun DFT Library
   Mihaly Kallay                                 : mrcc  (arbitrary order and MRCC methods)
   Andreas Klamt, Michael Diedenhofen            : otool_cosmo (COSMO solvation model)
   Jiri Pittner, Ondrej Demel                    : Mk-CCSD
   Frank Weinhold                                : gennbo (NPA and NBO analysis)
   Christopher J. Cramer and Donald G. Truhlar   : smd solvation model
   Lars Goerigk                                  : TD-DFT with DH, B97 family of functionals
   V. Asgeirsson, H. Jonsson                     : NEB implementation
   FAccTs GmbH                                   : IRC, NEB, NEB-TS, Multilevel


 Your calculation uses the libint2 library for the computation of 2-el integrals
 For citations please refer to: http://libint.valeyev.net

 This ORCA versions uses:
   CBLAS   interface :  Fast vector & matrix operations
   LAPACKE interface :  Fast linear algebra routines
   SCALAPACK package :  Parallel linear algebra routines


----- Orbital basis set information -----
Your calculation utilizes the basis: aug-pc-4
   H, C-F              : F. Jensen, J. Chem. Phys. 115, 9113 (2001).
                         F. Jensen, J. Chem. Phys. 116, 7372 (2002).
                         F. Jensen, J. Chem. Phys. 117, 9234 (2002).
   Si-Cl               : F. Jensen, T. Helgaker, J. Chem. Phys. 121, 3463 (2004).
   He-B, Ne-Mg, Al, Ar : F. Jensen, J. Phys. Chem. A 111, 11198 (2007).
   K, Ca, Ga-Kr        : F. Jensen, J. Chem. Phys. 136, 094110 (2012).
   Sc-Zn               : F. Jensen, J. Chem. Phys. 138, 014107 (2013).

================================================================================
                                        WARNINGS
                       Please study these warnings very carefully!
================================================================================


INFO   : the flag for use of LIBINT has been found!

================================================================================
                                       INPUT FILE
================================================================================
NAME = ph3_pbe.inp
|  1> !uks pbe nori aug-pc-4 grid7 nofinalgrid verytightscf
|  2> 
|  3> %maxcore 1500
|  4> 
|  5> %pal nprocs 1 end
|  6> 
|  7> %scf
|  8> 	maxiter 200
|  9> end
| 10> %elprop
| 11> 	dipole true
| 12> 	 polar 1
| 13> 	 maxiter 200
| 14> end
| 15> 
| 16> * xyz 0 1
| 17> P 0.0000 0.0000 0.0000
| 18> H 0.0000 -1.1932 -0.7717
| 19> H 1.0333 0.5966 -0.7717
| 20> H -1.0333 0.5966 -0.7717
| 21> *
| 22> 
| 23>                          ****END OF INPUT****
================================================================================

                       ****************************
                       * Single Point Calculation *
                       ****************************

---------------------------------
CARTESIAN COORDINATES (ANGSTROEM)
---------------------------------
  P      0.000000    0.000000    0.000000
  H      0.000000   -1.193200   -0.771700
  H      1.033300    0.596600   -0.771700
  H     -1.033300    0.596600   -0.771700

----------------------------
CARTESIAN COORDINATES (A.U.)
----------------------------
  NO LB      ZA    FRAG     MASS         X           Y           Z
   0 P    15.0000    0    30.974    0.000000    0.000000    0.000000
   1 H     1.0000    0     1.008    0.000000   -2.254821   -1.458302
   2 H     1.0000    0     1.008    1.952654    1.127411   -1.458302
   3 H     1.0000    0     1.008   -1.952654    1.127411   -1.458302

--------------------------------
INTERNAL COORDINATES (ANGSTROEM)
--------------------------------
 P      0   0   0     0.000000000000     0.00000000     0.00000000
 H      1   0   0     1.421002156930     0.00000000     0.00000000
 H      1   2   0     1.420971970167    93.30308962     0.00000000
 H      1   2   3     1.420971970167    93.30308962    93.50291116

---------------------------
INTERNAL COORDINATES (A.U.)
---------------------------
 P      0   0   0     0.000000000000     0.00000000     0.00000000
 H      1   0   0     2.685304912309     0.00000000     0.00000000
 H      1   2   0     2.685247867594    93.30308962     0.00000000
 H      1   2   3     2.685247867594    93.30308962    93.50291116

---------------------
BASIS SET INFORMATION
---------------------
There are 2 groups of distinct atoms

 Group   1 Type P   : 44s27p7d4f3g2h contracted to 8s7p7d4f3g2h pattern {15121211111/111111111/1111111/1111/111/11}
 Group   2 Type H   : 12s7p4d3f2g contracted to 8s7p4d3f2g pattern {51111111/1111111/1111/111/11}

Atom   0P    basis set group =>   1
Atom   1H    basis set group =>   2
Atom   2H    basis set group =>   2
Atom   3H    basis set group =>   2
------------------------------------------------------------------------------
                           ORCA GTO INTEGRAL CALCULATION
------------------------------------------------------------------------------

                         BASIS SET STATISTICS AND STARTUP INFO

 # of primitive gaussian shells          ...  171
 # of primitive gaussian functions       ...  513
 # of contracted shells                  ...  103
 # of contracted basis functions         ...  405
 Highest angular momentum                ...    5
 Maximum contraction depth               ...   15
 Integral package used                   ... LIBINT
 Integral threshhold            Thresh   ...  1.000e-12
 Primitive cut-off              TCut     ...  1.000e-14


------------------------------ INTEGRAL EVALUATION ----------------------------


 * One electron integrals 
 Pre-screening matrix                    ... done
 Shell pair data                         ... done (   0.002 sec)

-------------------------------------------------------------------------------
                                 ORCA SCF
-------------------------------------------------------------------------------

------------
SCF SETTINGS
------------
Hamiltonian:
 Density Functional     Method          .... DFT(GTOs)
 Exchange Functional    Exchange        .... PBE
   PBE kappa parameter   XKappa         ....  0.804000
   PBE mue parameter    XMuePBE         ....  0.219520
 Correlation Functional Correlation     .... PBE
   PBE beta parameter  CBetaPBE         ....  0.066725
 LDA part of GGA corr.  LDAOpt          .... PW91-LDA
 Gradients option       PostSCFGGA      .... off
   Density functional embedding theory  .... OFF
   NL short-range parameter             ....  6.400000


General Settings:
 Integral files         IntName         .... ph3_pbe
 Hartree-Fock type      HFTyp           .... UHF
 Total Charge           Charge          ....    0
 Multiplicity           Mult            ....    1
 Number of Electrons    NEL             ....   18
 Basis Dimension        Dim             ....  405
 Nuclear Repulsion      ENuc            ....     17.5262806360 Eh

Convergence Acceleration:
 DIIS                   CNVDIIS         .... on
   Start iteration      DIISMaxIt       ....    12
   Startup error        DIISStart       ....  0.200000
   # of expansion vecs  DIISMaxEq       ....     5
   Bias factor          DIISBfac        ....   1.050
   Max. coefficient     DIISMaxC        ....  10.000
 Newton-Raphson         CNVNR           .... off
 SOSCF                  CNVSOSCF        .... off
 Level Shifting         CNVShift        .... on
   Level shift para.    LevelShift      ....    0.2500
   Turn off err/grad.   ShiftErr        ....    0.0010
 Zerner damping         CNVZerner       .... off
 Static damping         CNVDamp         .... on
   Fraction old density DampFac         ....    0.7000
   Max. Damping (<1)    DampMax         ....    0.9800
   Min. Damping (>=0)   DampMin         ....    0.0000
   Turn off err/grad.   DampErr         ....    0.1000
 Fernandez-Rico         CNVRico         .... off

SCF Procedure:
 Maximum # iterations   MaxIter         ....   200
 SCF integral mode      SCFMode         .... Direct
   Integral package                     .... LIBINT
 Reset frequency        DirectResetFreq ....    20
 Integral Threshold     Thresh          ....  1.000e-12 Eh
 Primitive CutOff       TCut            ....  1.000e-14 Eh

Convergence Tolerance:
 Convergence Check Mode ConvCheckMode   .... Total+1el-Energy
 Convergence forced     ConvForced      .... 0
 Energy Change          TolE            ....  1.000e-09 Eh
 1-El. energy change                    ....  1.000e-06 Eh
 DIIS Error             TolErr          ....  1.000e-08


Diagonalization of the overlap matrix:
Smallest eigenvalue                        ... 1.141e-06
Time for diagonalization                   ...    0.160 sec
Threshold for overlap eigenvalues          ... 1.000e-08
Number of eigenvalues below threshold      ... 0
Time for construction of square roots      ...    0.024 sec
Total time needed                          ...    0.185 sec

-------------------
DFT GRID GENERATION
-------------------

General Integration Accuracy     IntAcc      ...  5.670
Radial Grid Type                 RadialGrid  ... Gauss-Chebyshev
Angular Grid (max. acc.)         AngularGrid ... Lebedev-770
Angular grid pruning method      GridPruning ... 3 (G Style)
Weight generation scheme         WeightScheme... Becke
Basis function cutoff            BFCut       ...    1.0000e-12
Integration weight cutoff        WCut        ...    1.0000e-14
Grids for H and He will be reduced by one unit

# of grid points (after initial pruning)     ...  80700 (   0.0 sec)
# of grid points (after weights+screening)   ...  79405 (   0.0 sec)
nearest neighbour list constructed           ...    0.0 sec
Grid point re-assignment to atoms done       ...    0.0 sec
Grid point division into batches done        ...    1.4 sec
Reduced shell lists constructed in    2.4 sec

Total number of grid points                  ...    79405
Total number of batches                      ...     1243
Average number of points per batch           ...       63
Average number of grid points per atom       ...    19851
Average number of shells per batch           ...    77.41 (75.15%)
Average number of basis functions per batch  ...   310.82 (76.75%)
Average number of large shells per batch     ...    69.15 (89.33%)
Average number of large basis fcns per batch ...   278.37 (89.56%)
Maximum spatial batch extension              ...  18.05, 16.05, 20.90 au
Average spatial batch extension              ...   2.08,  2.11,  2.18 au

Time for grid setup =    2.446 sec

------------------------------
INITIAL GUESS: MODEL POTENTIAL
------------------------------
Loading Hartree-Fock densities                     ... done
Calculating cut-offs                               ... done
Setting up the integral package                    ... done
Initializing the effective Hamiltonian             ... done
Starting the Coulomb interaction                   ... done (   0.1 sec)
Reading the grid                                   ... done
Mapping shells                                     ... done
Starting the XC term evaluation                    ... done (   5.8 sec)
  promolecular density results
     # of electrons  =     17.998531417
     EX              =    -23.375645248
     EC              =     -0.643595216
     EX+EC           =    -24.019240464
Transforming the Hamiltonian                       ... done (   0.0 sec)
Diagonalizing the Hamiltonian                      ... done (   0.0 sec)
Back transforming the eigenvectors                 ... done (   0.0 sec)
Now organizing SCF variables                       ... done
                      ------------------
                      INITIAL GUESS DONE (   8.6 sec)
                      ------------------
--------------
SCF ITERATIONS
--------------
ITER       Energy         Delta-E        Max-DP      RMS-DP      [F,P]     Damp
               ***  Starting incremental Fock matrix formation  ***
  0   -342.9872100834   0.000000000000 0.01354838  0.00011957  0.0459864 0.7000
  1   -342.9911167874  -0.003906704037 0.00939663  0.00008309  0.0297033 0.7000
                               ***Turning on DIIS***
  2   -342.9932430872  -0.002126299715 0.01856281  0.00015362  0.0159449 0.0000
  3   -342.9962037265  -0.002960639374 0.00962708  0.00006574  0.0140768 0.0000
  4   -342.9968509784  -0.000647251833 0.00176568  0.00001541  0.0025321 0.0000
  5   -342.9968890312  -0.000038052834 0.00038057  0.00000500  0.0010635 0.0000
  6   -342.9968932210  -0.000004189752 0.00029255  0.00000390  0.0002562 0.0000
  7   -342.9968936468  -0.000000425854 0.00003525  0.00000039  0.0000836 0.0000
  8   -342.9968936586  -0.000000011811 0.00001794  0.00000015  0.0000186 0.0000
  9   -342.9968936592  -0.000000000589 0.00001539  0.00000016  0.0000052 0.0000
 10   -342.9968936592  -0.000000000041 0.00004345  0.00000043  0.0000006 0.0000
                 **** Energy Check signals convergence ****

               *****************************************************
               *                     SUCCESS                       *
               *           SCF CONVERGED AFTER  11 CYCLES          *
               *****************************************************


----------------
TOTAL SCF ENERGY
----------------

Total Energy       :         -342.99689366 Eh           -9333.41998 eV

Components:
Nuclear Repulsion  :           17.52628064 Eh             476.91434 eV
Electronic Energy  :         -360.52317430 Eh           -9810.33432 eV
One Electron Energy:         -508.64152070 Eh          -13840.83943 eV
Two Electron Energy:          148.11834641 Eh            4030.50511 eV

Virial components:
Potential Energy   :         -685.67476019 Eh          -18658.15879 eV
Kinetic Energy     :          342.67786653 Eh            9324.73881 eV
Virial Ratio       :            2.00093098


DFT components:
N(Alpha)           :        9.000000025098 electrons
N(Beta)            :        9.000000025098 electrons
N(Total)           :       18.000000050196 electrons
E(X)               :      -23.507039045493 Eh       
E(C)               :       -0.642314821976 Eh       
E(XC)              :      -24.149353867469 Eh       
DFET-embed. en.    :        0.000000000000 Eh       

---------------
SCF CONVERGENCE
---------------

  Last Energy change         ...    6.2528e-13  Tolerance :   1.0000e-09
  Last MAX-Density change    ...    5.8513e-05  Tolerance :   1.0000e-08
  Last RMS-Density change    ...    6.2101e-07  Tolerance :   1.0000e-09
  Last DIIS Error            ...    9.0411e-08  Tolerance :   1.0000e-08

             **** THE GBW FILE WAS UPDATED (ph3_pbe.gbw) ****
             **** DENSITY FILE WAS UPDATED (ph3_pbe.scfp.tmp) ****
             **** ENERGY FILE WAS UPDATED (ph3_pbe.en.tmp) ****
----------------------
UHF SPIN CONTAMINATION
----------------------

Warning: in a DFT calculation there is little theoretical justification to 
         calculate <S**2> as in Hartree-Fock theory. We will do it anyways
         but you should keep in mind that the values have only limited relevance

Expectation value of <S**2>     :     0.000000
Ideal value S*(S+1) for S=0.0   :     0.000000
Deviation                       :     0.000000

----------------
ORBITAL ENERGIES
----------------
                 SPIN UP ORBITALS
  NO   OCC          E(Eh)            E(eV) 
   0   1.0000     -76.279214     -2075.6630 
   1   1.0000      -6.300543      -171.4465 
   2   1.0000      -4.516137      -122.8903 
   3   1.0000      -4.516137      -122.8903 
   4   1.0000      -4.511798      -122.7723 
   5   1.0000      -0.586754       -15.9664 
   6   1.0000      -0.346125        -9.4185 
   7   1.0000      -0.346123        -9.4185 
   8   1.0000      -0.246821        -6.7164 
   9   0.0000      -0.024718        -0.6726 
  10   0.0000      -0.013531        -0.3682 
  11   0.0000      -0.013530        -0.3682 
  12   0.0000       0.013922         0.3788 
  13   0.0000       0.013922         0.3788 
  14   0.0000       0.016275         0.4429 
  15   0.0000       0.036631         0.9968 
  16   0.0000       0.043047         1.1714 
  17   0.0000       0.043047         1.1714 
  18   0.0000       0.051110         1.3908 
  19   0.0000       0.051110         1.3908 
  20   0.0000       0.051595         1.4040 
  21   0.0000       0.075530         2.0553 
  22   0.0000       0.075531         2.0553 
  23   0.0000       0.079334         2.1588 
  24   0.0000       0.108707         2.9581 
  25   0.0000       0.119394         3.2489 
  26   0.0000       0.119397         3.2490 
  27   0.0000       0.119463         3.2508 
  28   0.0000       0.122631         3.3370 
  29   0.0000       0.122631         3.3370 
  30   0.0000       0.133482         3.6322 
  31   0.0000       0.133484         3.6323 
  32   0.0000       0.133725         3.6388 
  33   0.0000       0.144058         3.9200 
  34   0.0000       0.144059         3.9200 
  35   0.0000       0.148901         4.0518 
  36   0.0000       0.169251         4.6056 
  37   0.0000       0.169266         4.6060 
  38   0.0000       0.180594         4.9142 
  39   0.0000       0.205354         5.5880 
  40   0.0000       0.213377         5.8063 
  41   0.0000       0.213384         5.8065 
  42   0.0000       0.222769         6.0619 
  43   0.0000       0.224926         6.1205 
  44   0.0000       0.229692         6.2502 
  45   0.0000       0.233378         6.3505 
  46   0.0000       0.233379         6.3506 
  47   0.0000       0.237279         6.4567 
  48   0.0000       0.237280         6.4567 
  49   0.0000       0.248958         6.7745 
  50   0.0000       0.262692         7.1482 
  51   0.0000       0.266396         7.2490 
  52   0.0000       0.266400         7.2491 
  53   0.0000       0.277292         7.5455 
  54   0.0000       0.277292         7.5455 
  55   0.0000       0.290084         7.8936 
  56   0.0000       0.290086         7.8937 
  57   0.0000       0.302647         8.2354 
  58   0.0000       0.302648         8.2355 
  59   0.0000       0.304928         8.2975 
  60   0.0000       0.305122         8.3028 
  61   0.0000       0.326864         8.8944 
  62   0.0000       0.326905         8.8955 
  63   0.0000       0.333633         9.0786 
  64   0.0000       0.343426         9.3451 
  65   0.0000       0.343430         9.3452 
  66   0.0000       0.358201         9.7471 
  67   0.0000       0.374007        10.1772 
  68   0.0000       0.382704        10.4139 
  69   0.0000       0.382704        10.4139 
  70   0.0000       0.390206        10.6181 
  71   0.0000       0.390208        10.6181 
  72   0.0000       0.419883        11.4256 
  73   0.0000       0.419885        11.4256 
  74   0.0000       0.427216        11.6251 
  75   0.0000       0.443210        12.0604 
  76   0.0000       0.455585        12.3971 
  77   0.0000       0.457014        12.4360 
  78   0.0000       0.457018        12.4361 
  79   0.0000       0.461253        12.5513 
  80   0.0000       0.467385        12.7182 
  81   0.0000       0.467388        12.7183 
  82   0.0000       0.475478        12.9384 
  83   0.0000       0.478895        13.0314 
  84   0.0000       0.486086        13.2271 
  85   0.0000       0.486087        13.2271 
  86   0.0000       0.496608        13.5134 
  87   0.0000       0.496610        13.5134 
  88   0.0000       0.496960        13.5230 
  89   0.0000       0.506905        13.7936 
  90   0.0000       0.506906        13.7936 
  91   0.0000       0.507365        13.8061 
  92   0.0000       0.514806        14.0086 
  93   0.0000       0.514807        14.0086 
  94   0.0000       0.524492        14.2721 
  95   0.0000       0.534985        14.5577 
  96   0.0000       0.534989        14.5578 
  97   0.0000       0.576776        15.6949 
  98   0.0000       0.576802        15.6956 
  99   0.0000       0.583222        15.8703 
 100   0.0000       0.583240        15.8708 
 101   0.0000       0.590126        16.0582 
 102   0.0000       0.603674        16.4268 
 103   0.0000       0.603678        16.4269 
 104   0.0000       0.624149        16.9840 
 105   0.0000       0.626426        17.0459 
 106   0.0000       0.632946        17.2233 
 107   0.0000       0.632947        17.2234 
 108   0.0000       0.635441        17.2912 
 109   0.0000       0.644646        17.5417 
 110   0.0000       0.644649        17.5418 
 111   0.0000       0.673155        18.3175 
 112   0.0000       0.685146        18.6438 
 113   0.0000       0.685152        18.6439 
 114   0.0000       0.700172        19.0526 
 115   0.0000       0.725833        19.7509 
 116   0.0000       0.732974        19.9452 
 117   0.0000       0.732976        19.9453 
 118   0.0000       0.734172        19.9778 
 119   0.0000       0.734975        19.9997 
 120   0.0000       0.738445        20.0941 
 121   0.0000       0.738448        20.0942 
 122   0.0000       0.743530        20.2325 
 123   0.0000       0.743530        20.2325 
 124   0.0000       0.756352        20.5814 
 125   0.0000       0.767148        20.8751 
 126   0.0000       0.767666        20.8893 
 127   0.0000       0.767668        20.8893 
 128   0.0000       0.771413        20.9912 
 129   0.0000       0.771416        20.9913 
 130   0.0000       0.774080        21.0638 
 131   0.0000       0.812275        22.1031 
 132   0.0000       0.812281        22.1033 
 133   0.0000       0.819195        22.2914 
 134   0.0000       0.819196        22.2915 
 135   0.0000       0.838299        22.8113 
 136   0.0000       0.841885        22.9089 
 137   0.0000       0.842996        22.9391 
 138   0.0000       0.846177        23.0256 
 139   0.0000       0.846177        23.0257 
 140   0.0000       0.862810        23.4782 
 141   0.0000       0.862813        23.4783 
 142   0.0000       0.873592        23.7716 
 143   0.0000       0.882394        24.0111 
 144   0.0000       0.889898        24.2154 
 145   0.0000       0.889902        24.2155 
 146   0.0000       0.915263        24.9056 
 147   0.0000       0.915275        24.9059 
 148   0.0000       0.955563        26.0022 
 149   0.0000       0.955586        26.0028 
 150   0.0000       0.998635        27.1742 
 151   0.0000       0.998636        27.1743 
 152   0.0000       1.024096        27.8671 
 153   0.0000       1.038965        28.2717 
 154   0.0000       1.038971        28.2718 
 155   0.0000       1.134075        30.8598 
 156   0.0000       1.171128        31.8680 
 157   0.0000       1.183159        32.1954 
 158   0.0000       1.183162        32.1955 
 159   0.0000       1.221868        33.2487 
 160   0.0000       1.246303        33.9136 
 161   0.0000       1.246308        33.9138 
 162   0.0000       1.291637        35.1472 
 163   0.0000       1.291646        35.1475 
 164   0.0000       1.303796        35.4781 
 165   0.0000       1.352146        36.7938 
 166   0.0000       1.352147        36.7938 
 167   0.0000       1.360718        37.0270 
 168   0.0000       1.401936        38.1486 
 169   0.0000       1.441392        39.2223 
 170   0.0000       1.462122        39.7863 
 171   0.0000       1.478599        40.2347 
 172   0.0000       1.478602        40.2348 
 173   0.0000       1.500570        40.8326 
 174   0.0000       1.500577        40.8328 
 175   0.0000       1.534966        41.7686 
 176   0.0000       1.534975        41.7688 
 177   0.0000       1.570022        42.7225 
 178   0.0000       1.582282        43.0561 
 179   0.0000       1.619085        44.0575 
 180   0.0000       1.619091        44.0577 
 181   0.0000       1.668615        45.4053 
 182   0.0000       1.668619        45.4054 
 183   0.0000       1.714942        46.6659 
 184   0.0000       1.749709        47.6120 
 185   0.0000       1.760103        47.8948 
 186   0.0000       1.760113        47.8951 
 187   0.0000       1.764644        48.0184 
 188   0.0000       1.811792        49.3014 
 189   0.0000       1.811792        49.3014 
 190   0.0000       2.258750        61.4637 
 191   0.0000       2.258766        61.4641 
 192   0.0000       2.261936        61.5504 
 193   0.0000       2.311898        62.9099 
 194   0.0000       2.319600        63.1195 
 195   0.0000       2.319603        63.1196 
 196   0.0000       2.409801        65.5740 
 197   0.0000       2.409802        65.5740 
 198   0.0000       2.556038        69.5533 
 199   0.0000       2.562232        69.7219 
 200   0.0000       2.562249        69.7223 
 201   0.0000       2.604311        70.8669 
 202   0.0000       2.746352        74.7320 
 203   0.0000       2.746355        74.7321 
 204   0.0000       2.770954        75.4015 
 205   0.0000       2.862650        77.8967 
 206   0.0000       2.862659        77.8969 
 207   0.0000       2.915079        79.3233 
 208   0.0000       2.915096        79.3238 
 209   0.0000       2.917128        79.3791 
 210   0.0000       2.952270        80.3354 
 211   0.0000       3.000446        81.6463 
 212   0.0000       3.000447        81.6463 
 213   0.0000       3.003803        81.7376 
 214   0.0000       3.033191        82.5373 
 215   0.0000       3.033195        82.5374 
 216   0.0000       3.100687        84.3740 
 217   0.0000       3.123494        84.9946 
 218   0.0000       3.250250        88.4438 
 219   0.0000       3.279656        89.2440 
 220   0.0000       3.279673        89.2445 
 221   0.0000       3.353163        91.2442 
 222   0.0000       3.401519        92.5600 
 223   0.0000       3.401520        92.5601 
 224   0.0000       3.487694        94.9050 
 225   0.0000       3.495954        95.1297 
 226   0.0000       3.495955        95.1298 
 227   0.0000       3.508490        95.4709 
 228   0.0000       3.523426        95.8773 
 229   0.0000       3.523429        95.8774 
 230   0.0000       3.580830        97.4393 
 231   0.0000       3.580832        97.4394 
 232   0.0000       3.672586        99.9361 
 233   0.0000       3.673757        99.9680 
 234   0.0000       3.677634       100.0735 
 235   0.0000       3.677642       100.0737 
 236   0.0000       3.725031       101.3633 
 237   0.0000       3.740852       101.7938 
 238   0.0000       3.740890       101.7948 
 239   0.0000       3.758870       102.2841 
 240   0.0000       3.828633       104.1824 
 241   0.0000       3.863746       105.1379 
 242   0.0000       3.863755       105.1381 
 243   0.0000       3.923375       106.7605 
 244   0.0000       3.923407       106.7613 
 245   0.0000       4.078093       110.9705 
 246   0.0000       4.078106       110.9709 
 247   0.0000       4.140756       112.6757 
 248   0.0000       4.347682       118.3064 
 249   0.0000       4.347719       118.3075 
 250   0.0000       4.572387       124.4210 
 251   0.0000       4.579272       124.6083 
 252   0.0000       4.579311       124.6094 
 253   0.0000       4.817058       131.0788 
 254   0.0000       4.927921       134.0956 
 255   0.0000       4.927949       134.0963 
 256   0.0000       4.959856       134.9645 
 257   0.0000       5.114744       139.1793 
 258   0.0000       5.114746       139.1793 
 259   0.0000       5.217083       141.9640 
 260   0.0000       5.243217       142.6752 
 261   0.0000       5.245173       142.7284 
 262   0.0000       5.245192       142.7289 
 263   0.0000       5.410840       147.2365 
 264   0.0000       5.429105       147.7334 
 265   0.0000       5.429122       147.7339 
 266   0.0000       5.510897       149.9591 
 267   0.0000       5.510913       149.9596 
 268   0.0000       5.786165       157.4495 
 269   0.0000       5.829396       158.6259 
 270   0.0000       5.829399       158.6260 
 271   0.0000       5.861291       159.4938 
 272   0.0000       5.861307       159.4943 
 273   0.0000       5.983800       162.8275 
 274   0.0000       6.129534       166.7931 
 275   0.0000       6.344569       172.6445 
 276   0.0000       6.344580       172.6448 
 277   0.0000       6.587607       179.2579 
 278   0.0000       6.587641       179.2588 
 279   0.0000       6.888857       187.4553 
 280   0.0000       7.265920       197.7157 
 281   0.0000       7.265933       197.7161 
 282   0.0000       7.591983       206.5884 
 283   0.0000       7.592006       206.5890 
 284   0.0000       7.613364       207.1702 
 285   0.0000       7.831857       213.1157 
 286   0.0000       7.835452       213.2135 
 287   0.0000       7.835457       213.2136 
 288   0.0000       8.060393       219.3344 
 289   0.0000       8.068850       219.5646 
 290   0.0000       8.068862       219.5649 
 291   0.0000       8.487426       230.9546 
 292   0.0000       8.487431       230.9547 
 293   0.0000       8.487966       230.9693 
 294   0.0000       8.553426       232.7506 
 295   0.0000       8.586977       233.6635 
 296   0.0000       8.587001       233.6642 
 297   0.0000       8.839508       240.5352 
 298   0.0000       8.839508       240.5352 
 299   0.0000       8.892361       241.9734 
 300   0.0000       8.921252       242.7596 
 301   0.0000       8.965755       243.9706 
 302   0.0000       8.965759       243.9707 
 303   0.0000       9.085843       247.2384 
 304   0.0000       9.119509       248.1544 
 305   0.0000       9.119538       248.1553 
 306   0.0000       9.261205       252.0102 
 307   0.0000       9.302567       253.1357 
 308   0.0000       9.302585       253.1362 
 309   0.0000       9.356275       254.5972 
 310   0.0000       9.431594       256.6467 
 311   0.0000       9.431638       256.6479 
 312   0.0000       9.733252       264.8553 
 313   0.0000       9.775718       266.0108 
 314   0.0000       9.775749       266.0116 
 315   0.0000      10.404308       283.1156 
 316   0.0000      10.988986       299.0255 
 317   0.0000      10.988989       299.0256 
 318   0.0000      11.073803       301.3335 
 319   0.0000      11.307551       307.6941 
 320   0.0000      11.307608       307.6957 
 321   0.0000      11.393899       310.0438 
 322   0.0000      11.684038       317.9388 
 323   0.0000      11.684118       317.9410 
 324   0.0000      11.984208       326.1069 
 325   0.0000      12.330015       335.5168 
 326   0.0000      12.336035       335.6806 
 327   0.0000      12.336060       335.6813 
 328   0.0000      12.365542       336.4835 
 329   0.0000      12.374336       336.7228 
 330   0.0000      12.374353       336.7233 
 331   0.0000      12.535437       341.1066 
 332   0.0000      12.535470       341.1075 
 333   0.0000      12.737495       346.6049 
 334   0.0000      12.737528       346.6058 
 335   0.0000      12.787833       347.9746 
 336   0.0000      12.796035       348.1978 
 337   0.0000      13.032196       354.6241 
 338   0.0000      13.032229       354.6250 
 339   0.0000      13.063005       355.4624 
 340   0.0000      13.130158       357.2898 
 341   0.0000      13.141661       357.6028 
 342   0.0000      13.141717       357.6043 
 343   0.0000      13.413762       365.0070 
 344   0.0000      13.413820       365.0086 
 345   0.0000      13.741783       373.9329 
 346   0.0000      16.132719       438.9936 
 347   0.0000      16.132728       438.9938 
 348   0.0000      16.139625       439.1815 
 349   0.0000      16.703194       454.5170 
 350   0.0000      16.721971       455.0280 
 351   0.0000      16.721985       455.0283 
 352   0.0000      16.725960       455.1365 
 353   0.0000      16.727685       455.1835 
 354   0.0000      16.727691       455.1836 
 355   0.0000      16.734498       455.3688 
 356   0.0000      16.736162       455.4141 
 357   0.0000      16.736162       455.4141 
 358   0.0000      16.809196       457.4015 
 359   0.0000      16.818186       457.6461 
 360   0.0000      16.818191       457.6462 
 361   0.0000      16.931982       460.7427 
 362   0.0000      16.935818       460.8470 
 363   0.0000      16.935931       460.8501 
 364   0.0000      16.979101       462.0248 
 365   0.0000      17.156723       466.8582 
 366   0.0000      17.156735       466.8585 
 367   0.0000      17.208401       468.2644 
 368   0.0000      17.208469       468.2662 
 369   0.0000      17.456887       475.0260 
 370   0.0000      17.717697       482.1230 
 371   0.0000      17.719189       482.1636 
 372   0.0000      17.719229       482.1647 
 373   0.0000      17.913582       487.4533 
 374   0.0000      17.920146       487.6320 
 375   0.0000      17.920178       487.6328 
 376   0.0000      18.990508       516.7580 
 377   0.0000      18.990534       516.7587 
 378   0.0000      23.333792       634.9448 
 379   0.0000      23.333798       634.9449 
 380   0.0000      23.343325       635.2042 
 381   0.0000      23.347971       635.3306 
 382   0.0000      23.383114       636.2869 
 383   0.0000      23.383128       636.2873 
 384   0.0000      23.662340       643.8850 
 385   0.0000      24.027341       653.8172 
 386   0.0000      24.027348       653.8174 
 387   0.0000      26.339484       716.7338 
 388   0.0000      39.844475      1084.2233 
 389   0.0000      39.844494      1084.2238 
 390   0.0000      39.927319      1086.4776 
 391   0.0000      59.071336      1607.4128 
 392   0.0000      59.071351      1607.4132 
 393   0.0000      59.074986      1607.5121 
 394   0.0000      59.836568      1628.2358 
 395   0.0000      59.836605      1628.2368 
 396   0.0000      90.944539      2474.7267 
 397   0.0000      90.944546      2474.7269 
 398   0.0000      90.954985      2475.0110 
 399   0.0000      90.957211      2475.0715 
 400   0.0000      90.978665      2475.6553 
 401   0.0000      90.978668      2475.6554 
 402   0.0000      91.432067      2487.9930 
 403   0.0000      91.432068      2487.9931 
 404   0.0000      91.514363      2490.2324 

                 SPIN DOWN ORBITALS
  NO   OCC          E(Eh)            E(eV) 
   0   1.0000     -76.279214     -2075.6630 
   1   1.0000      -6.300543      -171.4465 
   2   1.0000      -4.516137      -122.8903 
   3   1.0000      -4.516137      -122.8903 
   4   1.0000      -4.511798      -122.7723 
   5   1.0000      -0.586754       -15.9664 
   6   1.0000      -0.346125        -9.4185 
   7   1.0000      -0.346123        -9.4185 
   8   1.0000      -0.246821        -6.7164 
   9   0.0000      -0.024718        -0.6726 
  10   0.0000      -0.013531        -0.3682 
  11   0.0000      -0.013530        -0.3682 
  12   0.0000       0.013922         0.3788 
  13   0.0000       0.013922         0.3788 
  14   0.0000       0.016275         0.4429 
  15   0.0000       0.036631         0.9968 
  16   0.0000       0.043047         1.1714 
  17   0.0000       0.043047         1.1714 
  18   0.0000       0.051110         1.3908 
  19   0.0000       0.051110         1.3908 
  20   0.0000       0.051595         1.4040 
  21   0.0000       0.075530         2.0553 
  22   0.0000       0.075531         2.0553 
  23   0.0000       0.079334         2.1588 
  24   0.0000       0.108707         2.9581 
  25   0.0000       0.119394         3.2489 
  26   0.0000       0.119397         3.2490 
  27   0.0000       0.119463         3.2508 
  28   0.0000       0.122631         3.3370 
  29   0.0000       0.122631         3.3370 
  30   0.0000       0.133482         3.6322 
  31   0.0000       0.133484         3.6323 
  32   0.0000       0.133725         3.6388 
  33   0.0000       0.144058         3.9200 
  34   0.0000       0.144059         3.9200 
  35   0.0000       0.148901         4.0518 
  36   0.0000       0.169251         4.6056 
  37   0.0000       0.169266         4.6060 
  38   0.0000       0.180594         4.9142 
  39   0.0000       0.205354         5.5880 
  40   0.0000       0.213377         5.8063 
  41   0.0000       0.213384         5.8065 
  42   0.0000       0.222769         6.0619 
  43   0.0000       0.224926         6.1205 
  44   0.0000       0.229692         6.2502 
  45   0.0000       0.233378         6.3505 
  46   0.0000       0.233379         6.3506 
  47   0.0000       0.237279         6.4567 
  48   0.0000       0.237280         6.4567 
  49   0.0000       0.248958         6.7745 
  50   0.0000       0.262692         7.1482 
  51   0.0000       0.266396         7.2490 
  52   0.0000       0.266400         7.2491 
  53   0.0000       0.277292         7.5455 
  54   0.0000       0.277292         7.5455 
  55   0.0000       0.290084         7.8936 
  56   0.0000       0.290086         7.8937 
  57   0.0000       0.302647         8.2354 
  58   0.0000       0.302648         8.2355 
  59   0.0000       0.304928         8.2975 
  60   0.0000       0.305122         8.3028 
  61   0.0000       0.326864         8.8944 
  62   0.0000       0.326905         8.8955 
  63   0.0000       0.333633         9.0786 
  64   0.0000       0.343426         9.3451 
  65   0.0000       0.343430         9.3452 
  66   0.0000       0.358201         9.7471 
  67   0.0000       0.374007        10.1772 
  68   0.0000       0.382704        10.4139 
  69   0.0000       0.382704        10.4139 
  70   0.0000       0.390206        10.6181 
  71   0.0000       0.390208        10.6181 
  72   0.0000       0.419883        11.4256 
  73   0.0000       0.419885        11.4256 
  74   0.0000       0.427216        11.6251 
  75   0.0000       0.443210        12.0604 
  76   0.0000       0.455585        12.3971 
  77   0.0000       0.457014        12.4360 
  78   0.0000       0.457018        12.4361 
  79   0.0000       0.461253        12.5513 
  80   0.0000       0.467385        12.7182 
  81   0.0000       0.467388        12.7183 
  82   0.0000       0.475478        12.9384 
  83   0.0000       0.478895        13.0314 
  84   0.0000       0.486086        13.2271 
  85   0.0000       0.486087        13.2271 
  86   0.0000       0.496608        13.5134 
  87   0.0000       0.496610        13.5134 
  88   0.0000       0.496960        13.5230 
  89   0.0000       0.506905        13.7936 
  90   0.0000       0.506906        13.7936 
  91   0.0000       0.507365        13.8061 
  92   0.0000       0.514806        14.0086 
  93   0.0000       0.514807        14.0086 
  94   0.0000       0.524492        14.2721 
  95   0.0000       0.534985        14.5577 
  96   0.0000       0.534989        14.5578 
  97   0.0000       0.576776        15.6949 
  98   0.0000       0.576802        15.6956 
  99   0.0000       0.583222        15.8703 
 100   0.0000       0.583240        15.8708 
 101   0.0000       0.590126        16.0582 
 102   0.0000       0.603674        16.4268 
 103   0.0000       0.603678        16.4269 
 104   0.0000       0.624149        16.9840 
 105   0.0000       0.626426        17.0459 
 106   0.0000       0.632946        17.2233 
 107   0.0000       0.632947        17.2234 
 108   0.0000       0.635441        17.2912 
 109   0.0000       0.644646        17.5417 
 110   0.0000       0.644649        17.5418 
 111   0.0000       0.673155        18.3175 
 112   0.0000       0.685146        18.6438 
 113   0.0000       0.685152        18.6439 
 114   0.0000       0.700172        19.0526 
 115   0.0000       0.725833        19.7509 
 116   0.0000       0.732974        19.9452 
 117   0.0000       0.732976        19.9453 
 118   0.0000       0.734172        19.9778 
 119   0.0000       0.734975        19.9997 
 120   0.0000       0.738445        20.0941 
 121   0.0000       0.738448        20.0942 
 122   0.0000       0.743530        20.2325 
 123   0.0000       0.743530        20.2325 
 124   0.0000       0.756352        20.5814 
 125   0.0000       0.767148        20.8751 
 126   0.0000       0.767666        20.8893 
 127   0.0000       0.767668        20.8893 
 128   0.0000       0.771413        20.9912 
 129   0.0000       0.771416        20.9913 
 130   0.0000       0.774080        21.0638 
 131   0.0000       0.812275        22.1031 
 132   0.0000       0.812281        22.1033 
 133   0.0000       0.819195        22.2914 
 134   0.0000       0.819196        22.2915 
 135   0.0000       0.838299        22.8113 
 136   0.0000       0.841885        22.9089 
 137   0.0000       0.842996        22.9391 
 138   0.0000       0.846177        23.0256 
 139   0.0000       0.846177        23.0257 
 140   0.0000       0.862810        23.4782 
 141   0.0000       0.862813        23.4783 
 142   0.0000       0.873592        23.7716 
 143   0.0000       0.882394        24.0111 
 144   0.0000       0.889898        24.2154 
 145   0.0000       0.889902        24.2155 
 146   0.0000       0.915263        24.9056 
 147   0.0000       0.915275        24.9059 
 148   0.0000       0.955563        26.0022 
 149   0.0000       0.955586        26.0028 
 150   0.0000       0.998635        27.1742 
 151   0.0000       0.998636        27.1743 
 152   0.0000       1.024096        27.8671 
 153   0.0000       1.038965        28.2717 
 154   0.0000       1.038971        28.2718 
 155   0.0000       1.134075        30.8598 
 156   0.0000       1.171128        31.8680 
 157   0.0000       1.183159        32.1954 
 158   0.0000       1.183162        32.1955 
 159   0.0000       1.221868        33.2487 
 160   0.0000       1.246303        33.9136 
 161   0.0000       1.246308        33.9138 
 162   0.0000       1.291637        35.1472 
 163   0.0000       1.291646        35.1475 
 164   0.0000       1.303796        35.4781 
 165   0.0000       1.352146        36.7938 
 166   0.0000       1.352147        36.7938 
 167   0.0000       1.360718        37.0270 
 168   0.0000       1.401936        38.1486 
 169   0.0000       1.441392        39.2223 
 170   0.0000       1.462122        39.7863 
 171   0.0000       1.478599        40.2347 
 172   0.0000       1.478602        40.2348 
 173   0.0000       1.500570        40.8326 
 174   0.0000       1.500577        40.8328 
 175   0.0000       1.534966        41.7686 
 176   0.0000       1.534975        41.7688 
 177   0.0000       1.570022        42.7225 
 178   0.0000       1.582282        43.0561 
 179   0.0000       1.619085        44.0575 
 180   0.0000       1.619091        44.0577 
 181   0.0000       1.668615        45.4053 
 182   0.0000       1.668619        45.4054 
 183   0.0000       1.714942        46.6659 
 184   0.0000       1.749709        47.6120 
 185   0.0000       1.760103        47.8948 
 186   0.0000       1.760113        47.8951 
 187   0.0000       1.764644        48.0184 
 188   0.0000       1.811792        49.3014 
 189   0.0000       1.811792        49.3014 
 190   0.0000       2.258750        61.4637 
 191   0.0000       2.258766        61.4641 
 192   0.0000       2.261936        61.5504 
 193   0.0000       2.311898        62.9099 
 194   0.0000       2.319600        63.1195 
 195   0.0000       2.319603        63.1196 
 196   0.0000       2.409801        65.5740 
 197   0.0000       2.409802        65.5740 
 198   0.0000       2.556038        69.5533 
 199   0.0000       2.562232        69.7219 
 200   0.0000       2.562249        69.7223 
 201   0.0000       2.604311        70.8669 
 202   0.0000       2.746352        74.7320 
 203   0.0000       2.746355        74.7321 
 204   0.0000       2.770954        75.4015 
 205   0.0000       2.862650        77.8967 
 206   0.0000       2.862659        77.8969 
 207   0.0000       2.915079        79.3233 
 208   0.0000       2.915096        79.3238 
 209   0.0000       2.917128        79.3791 
 210   0.0000       2.952270        80.3354 
 211   0.0000       3.000446        81.6463 
 212   0.0000       3.000447        81.6463 
 213   0.0000       3.003803        81.7376 
 214   0.0000       3.033191        82.5373 
 215   0.0000       3.033195        82.5374 
 216   0.0000       3.100687        84.3740 
 217   0.0000       3.123494        84.9946 
 218   0.0000       3.250250        88.4438 
 219   0.0000       3.279656        89.2440 
 220   0.0000       3.279673        89.2445 
 221   0.0000       3.353163        91.2442 
 222   0.0000       3.401519        92.5600 
 223   0.0000       3.401520        92.5601 
 224   0.0000       3.487694        94.9050 
 225   0.0000       3.495954        95.1297 
 226   0.0000       3.495955        95.1298 
 227   0.0000       3.508490        95.4709 
 228   0.0000       3.523426        95.8773 
 229   0.0000       3.523429        95.8774 
 230   0.0000       3.580830        97.4393 
 231   0.0000       3.580832        97.4394 
 232   0.0000       3.672586        99.9361 
 233   0.0000       3.673757        99.9680 
 234   0.0000       3.677634       100.0735 
 235   0.0000       3.677642       100.0737 
 236   0.0000       3.725031       101.3633 
 237   0.0000       3.740852       101.7938 
 238   0.0000       3.740890       101.7948 
 239   0.0000       3.758870       102.2841 
 240   0.0000       3.828633       104.1824 
 241   0.0000       3.863746       105.1379 
 242   0.0000       3.863755       105.1381 
 243   0.0000       3.923375       106.7605 
 244   0.0000       3.923407       106.7613 
 245   0.0000       4.078093       110.9705 
 246   0.0000       4.078106       110.9709 
 247   0.0000       4.140756       112.6757 
 248   0.0000       4.347682       118.3064 
 249   0.0000       4.347719       118.3075 
 250   0.0000       4.572387       124.4210 
 251   0.0000       4.579272       124.6083 
 252   0.0000       4.579311       124.6094 
 253   0.0000       4.817058       131.0788 
 254   0.0000       4.927921       134.0956 
 255   0.0000       4.927949       134.0963 
 256   0.0000       4.959856       134.9645 
 257   0.0000       5.114744       139.1793 
 258   0.0000       5.114746       139.1793 
 259   0.0000       5.217083       141.9640 
 260   0.0000       5.243217       142.6752 
 261   0.0000       5.245173       142.7284 
 262   0.0000       5.245192       142.7289 
 263   0.0000       5.410840       147.2365 
 264   0.0000       5.429105       147.7334 
 265   0.0000       5.429122       147.7339 
 266   0.0000       5.510897       149.9591 
 267   0.0000       5.510913       149.9596 
 268   0.0000       5.786165       157.4495 
 269   0.0000       5.829396       158.6259 
 270   0.0000       5.829399       158.6260 
 271   0.0000       5.861291       159.4938 
 272   0.0000       5.861307       159.4943 
 273   0.0000       5.983800       162.8275 
 274   0.0000       6.129534       166.7931 
 275   0.0000       6.344569       172.6445 
 276   0.0000       6.344580       172.6448 
 277   0.0000       6.587607       179.2579 
 278   0.0000       6.587641       179.2588 
 279   0.0000       6.888857       187.4553 
 280   0.0000       7.265920       197.7157 
 281   0.0000       7.265933       197.7161 
 282   0.0000       7.591983       206.5884 
 283   0.0000       7.592006       206.5890 
 284   0.0000       7.613364       207.1702 
 285   0.0000       7.831857       213.1157 
 286   0.0000       7.835452       213.2135 
 287   0.0000       7.835457       213.2136 
 288   0.0000       8.060393       219.3344 
 289   0.0000       8.068850       219.5646 
 290   0.0000       8.068862       219.5649 
 291   0.0000       8.487426       230.9546 
 292   0.0000       8.487431       230.9547 
 293   0.0000       8.487966       230.9693 
 294   0.0000       8.553426       232.7506 
 295   0.0000       8.586977       233.6635 
 296   0.0000       8.587001       233.6642 
 297   0.0000       8.839508       240.5352 
 298   0.0000       8.839508       240.5352 
 299   0.0000       8.892361       241.9734 
 300   0.0000       8.921252       242.7596 
 301   0.0000       8.965755       243.9706 
 302   0.0000       8.965759       243.9707 
 303   0.0000       9.085843       247.2384 
 304   0.0000       9.119509       248.1544 
 305   0.0000       9.119538       248.1553 
 306   0.0000       9.261205       252.0102 
 307   0.0000       9.302567       253.1357 
 308   0.0000       9.302585       253.1362 
 309   0.0000       9.356275       254.5972 
 310   0.0000       9.431594       256.6467 
 311   0.0000       9.431638       256.6479 
 312   0.0000       9.733252       264.8553 
 313   0.0000       9.775718       266.0108 
 314   0.0000       9.775749       266.0116 
 315   0.0000      10.404308       283.1156 
 316   0.0000      10.988986       299.0255 
 317   0.0000      10.988989       299.0256 
 318   0.0000      11.073803       301.3335 
 319   0.0000      11.307551       307.6941 
 320   0.0000      11.307608       307.6957 
 321   0.0000      11.393899       310.0438 
 322   0.0000      11.684038       317.9388 
 323   0.0000      11.684118       317.9410 
 324   0.0000      11.984208       326.1069 
 325   0.0000      12.330015       335.5168 
 326   0.0000      12.336035       335.6806 
 327   0.0000      12.336060       335.6813 
 328   0.0000      12.365542       336.4835 
 329   0.0000      12.374336       336.7228 
 330   0.0000      12.374353       336.7233 
 331   0.0000      12.535437       341.1066 
 332   0.0000      12.535470       341.1075 
 333   0.0000      12.737495       346.6049 
 334   0.0000      12.737528       346.6058 
 335   0.0000      12.787833       347.9746 
 336   0.0000      12.796035       348.1978 
 337   0.0000      13.032196       354.6241 
 338   0.0000      13.032229       354.6250 
 339   0.0000      13.063005       355.4624 
 340   0.0000      13.130158       357.2898 
 341   0.0000      13.141661       357.6028 
 342   0.0000      13.141717       357.6043 
 343   0.0000      13.413762       365.0070 
 344   0.0000      13.413820       365.0086 
 345   0.0000      13.741783       373.9329 
 346   0.0000      16.132719       438.9936 
 347   0.0000      16.132728       438.9938 
 348   0.0000      16.139625       439.1815 
 349   0.0000      16.703194       454.5170 
 350   0.0000      16.721971       455.0280 
 351   0.0000      16.721985       455.0283 
 352   0.0000      16.725960       455.1365 
 353   0.0000      16.727685       455.1835 
 354   0.0000      16.727691       455.1836 
 355   0.0000      16.734498       455.3688 
 356   0.0000      16.736162       455.4141 
 357   0.0000      16.736162       455.4141 
 358   0.0000      16.809196       457.4015 
 359   0.0000      16.818186       457.6461 
 360   0.0000      16.818191       457.6462 
 361   0.0000      16.931982       460.7427 
 362   0.0000      16.935818       460.8470 
 363   0.0000      16.935931       460.8501 
 364   0.0000      16.979101       462.0248 
 365   0.0000      17.156723       466.8582 
 366   0.0000      17.156735       466.8585 
 367   0.0000      17.208401       468.2644 
 368   0.0000      17.208469       468.2662 
 369   0.0000      17.456887       475.0260 
 370   0.0000      17.717697       482.1230 
 371   0.0000      17.719189       482.1636 
 372   0.0000      17.719229       482.1647 
 373   0.0000      17.913582       487.4533 
 374   0.0000      17.920146       487.6320 
 375   0.0000      17.920178       487.6328 
 376   0.0000      18.990508       516.7580 
 377   0.0000      18.990534       516.7587 
 378   0.0000      23.333792       634.9448 
 379   0.0000      23.333798       634.9449 
 380   0.0000      23.343325       635.2042 
 381   0.0000      23.347971       635.3306 
 382   0.0000      23.383114       636.2869 
 383   0.0000      23.383128       636.2873 
 384   0.0000      23.662340       643.8850 
 385   0.0000      24.027341       653.8172 
 386   0.0000      24.027348       653.8174 
 387   0.0000      26.339484       716.7338 
 388   0.0000      39.844475      1084.2233 
 389   0.0000      39.844494      1084.2238 
 390   0.0000      39.927319      1086.4776 
 391   0.0000      59.071336      1607.4128 
 392   0.0000      59.071351      1607.4132 
 393   0.0000      59.074986      1607.5121 
 394   0.0000      59.836568      1628.2358 
 395   0.0000      59.836605      1628.2368 
 396   0.0000      90.944539      2474.7267 
 397   0.0000      90.944546      2474.7269 
 398   0.0000      90.954985      2475.0110 
 399   0.0000      90.957211      2475.0715 
 400   0.0000      90.978665      2475.6553 
 401   0.0000      90.978668      2475.6554 
 402   0.0000      91.432067      2487.9930 
 403   0.0000      91.432068      2487.9931 
 404   0.0000      91.514363      2490.2324 

                    ********************************
                    * MULLIKEN POPULATION ANALYSIS *
                    ********************************

--------------------------------------------
MULLIKEN ATOMIC CHARGES AND SPIN POPULATIONS
--------------------------------------------
   0 P :   -0.105431    0.000000
   1 H :    0.035151    0.000000
   2 H :    0.035161   -0.000000
   3 H :    0.035119   -0.000000
Sum of atomic charges         :    0.0000000
Sum of atomic spin populations:   -0.0000000

-----------------------------------------------------
MULLIKEN REDUCED ORBITAL CHARGES AND SPIN POPULATIONS
-----------------------------------------------------
CHARGE
  0 P s       :     5.806983  s :     5.806983
      pz      :     3.300135  p :     9.168114
      px      :     2.933995
      py      :     2.933984
      dz2     :     0.001289  d :     0.123082
      dxz     :     0.041705
      dyz     :     0.041704
      dx2y2   :     0.019191
      dxy     :     0.019193
      f0      :     0.001530  f :     0.006279
      f+1     :     0.000135
      f-1     :     0.000135
      f+2     :     0.001624
      f-2     :     0.001624
      f+3     :     0.000000
      f-3     :     0.001230
      g0      :     0.000227  g :     0.000751
      g+1     :     0.000067
      g-1     :     0.000067
      g+2     :     0.000052
      g-2     :     0.000052
      g+3     :     0.000000
      g-3     :     0.000223
      g+4     :     0.000032
      g-4     :     0.000032
      h0      :     0.000012  h :     0.000221
      h+1     :     0.000024
      h-1     :     0.000024
      h+2     :     0.000001
      h-2     :     0.000001
      h+3     :    -0.000000
      h-3     :     0.000041
      h+4     :     0.000063
      h-4     :     0.000063
      h+5     :    -0.000005
      h-5     :    -0.000005
  1 H s       :     1.004164  s :     1.004164
      pz      :     0.028803  p :     0.002808
      px      :    -0.003467
      py      :    -0.022528
      dz2     :    -0.002130  d :    -0.027387
      dxz     :    -0.000657
      dyz     :    -0.001208
      dx2y2   :    -0.010006
      dxy     :    -0.013387
      f0      :    -0.000408  f :    -0.013150
      f+1     :    -0.000608
      f-1     :    -0.003150
      f+2     :    -0.000724
      f-2     :    -0.001019
      f+3     :    -0.005719
      f-3     :    -0.001520
      g0      :    -0.000173  g :    -0.001586
      g+1     :    -0.000033
      g-1     :    -0.000099
      g+2     :    -0.000309
      g-2     :    -0.000153
      g+3     :    -0.000237
      g-3     :    -0.000069
      g+4     :     0.000054
      g-4     :    -0.000566
  2 H s       :     1.004152  s :     1.004152
      pz      :     0.028811  p :     0.002810
      px      :    -0.017763
      py      :    -0.008237
      dz2     :    -0.002130  d :    -0.027387
      dxz     :    -0.001068
      dyz     :    -0.000793
      dx2y2   :    -0.012542
      dxy     :    -0.010854
      f0      :    -0.000408  f :    -0.013150
      f+1     :    -0.002515
      f-1     :    -0.001244
      f+2     :    -0.000946
      f-2     :    -0.000797
      f+3     :    -0.005720
      f-3     :    -0.001520
      g0      :    -0.000173  g :    -0.001586
      g+1     :    -0.000082
      g-1     :    -0.000050
      g+2     :    -0.000192
      g-2     :    -0.000270
      g+3     :    -0.000237
      g-3     :    -0.000069
      g+4     :    -0.000411
      g-4     :    -0.000101
  3 H s       :     1.004155  s :     1.004155
      pz      :     0.028823  p :     0.002840
      px      :    -0.017750
      py      :    -0.008233
      dz2     :    -0.002132  d :    -0.027379
      dxz     :    -0.001063
      dyz     :    -0.000791
      dx2y2   :    -0.012542
      dxy     :    -0.010851
      f0      :    -0.000408  f :    -0.013148
      f+1     :    -0.002515
      f-1     :    -0.001244
      f+2     :    -0.000945
      f-2     :    -0.000797
      f+3     :    -0.005720
      f-3     :    -0.001520
      g0      :    -0.000173  g :    -0.001586
      g+1     :    -0.000082
      g-1     :    -0.000050
      g+2     :    -0.000192
      g-2     :    -0.000270
      g+3     :    -0.000237
      g-3     :    -0.000069
      g+4     :    -0.000411
      g-4     :    -0.000101

SPIN
  0 P s       :     0.000000  s :     0.000000
      pz      :    -0.000000  p :    -0.000000
      px      :    -0.000000
      py      :     0.000000
      dz2     :    -0.000000  d :    -0.000000
      dxz     :    -0.000000
      dyz     :     0.000000
      dx2y2   :     0.000000
      dxy     :    -0.000000
      f0      :     0.000000  f :    -0.000000
      f+1     :     0.000000
      f-1     :    -0.000000
      f+2     :    -0.000000
      f-2     :    -0.000000
      f+3     :     0.000000
      f-3     :    -0.000000
      g0      :     0.000000  g :    -0.000000
      g+1     :    -0.000000
      g-1     :     0.000000
      g+2     :     0.000000
      g-2     :    -0.000000
      g+3     :     0.000000
      g-3     :    -0.000000
      g+4     :    -0.000000
      g-4     :     0.000000
      h0      :    -0.000000  h :    -0.000000
      h+1     :    -0.000000
      h-1     :     0.000000
      h+2     :    -0.000000
      h-2     :     0.000000
      h+3     :     0.000000
      h-3     :    -0.000000
      h+4     :    -0.000000
      h-4     :    -0.000000
      h+5     :     0.000000
      h-5     :    -0.000000
  1 H s       :     0.000000  s :     0.000000
      pz      :    -0.000000  p :    -0.000000
      px      :    -0.000000
      py      :     0.000000
      dz2     :     0.000000  d :     0.000000
      dxz     :    -0.000000
      dyz     :     0.000000
      dx2y2   :     0.000000
      dxy     :    -0.000000
      f0      :    -0.000000  f :    -0.000000
      f+1     :     0.000000
      f-1     :     0.000000
      f+2     :     0.000000
      f-2     :    -0.000000
      f+3     :    -0.000000
      f-3     :    -0.000000
      g0      :     0.000000  g :    -0.000000
      g+1     :     0.000000
      g-1     :    -0.000000
      g+2     :     0.000000
      g-2     :    -0.000000
      g+3     :     0.000000
      g-3     :     0.000000
      g+4     :    -0.000000
      g-4     :    -0.000000
  2 H s       :    -0.000000  s :    -0.000000
      pz      :    -0.000000  p :    -0.000000
      px      :    -0.000000
      py      :    -0.000000
      dz2     :    -0.000000  d :    -0.000000
      dxz     :    -0.000000
      dyz     :    -0.000000
      dx2y2   :    -0.000000
      dxy     :     0.000000
      f0      :    -0.000000  f :    -0.000000
      f+1     :    -0.000000
      f-1     :    -0.000000
      f+2     :     0.000000
      f-2     :     0.000000
      f+3     :     0.000000
      f-3     :    -0.000000
      g0      :    -0.000000  g :    -0.000000
      g+1     :    -0.000000
      g-1     :    -0.000000
      g+2     :    -0.000000
      g-2     :     0.000000
      g+3     :     0.000000
      g-3     :     0.000000
      g+4     :     0.000000
      g-4     :    -0.000000
  3 H s       :    -0.000000  s :    -0.000000
      pz      :     0.000000  p :    -0.000000
      px      :    -0.000000
      py      :     0.000000
      dz2     :    -0.000000  d :    -0.000000
      dxz     :     0.000000
      dyz     :     0.000000
      dx2y2   :    -0.000000
      dxy     :     0.000000
      f0      :    -0.000000  f :    -0.000000
      f+1     :    -0.000000
      f-1     :    -0.000000
      f+2     :     0.000000
      f-2     :     0.000000
      f+3     :    -0.000000
      f-3     :    -0.000000
      g0      :     0.000000  g :     0.000000
      g+1     :     0.000000
      g-1     :     0.000000
      g+2     :     0.000000
      g-2     :     0.000000
      g+3     :     0.000000
      g-3     :     0.000000
      g+4     :     0.000000
      g-4     :    -0.000000


                     *******************************
                     * LOEWDIN POPULATION ANALYSIS *
                     *******************************

-------------------------------------------
LOEWDIN ATOMIC CHARGES AND SPIN POPULATIONS
-------------------------------------------
   0 P :    1.934882    0.000000
   1 H :   -0.644944   -0.000000
   2 H :   -0.644969   -0.000000
   3 H :   -0.644969    0.000000

----------------------------------------------------
LOEWDIN REDUCED ORBITAL CHARGES AND SPIN POPULATIONS
----------------------------------------------------
CHARGE
  0 P s       :     4.629394  s :     4.629394
      pz      :     2.890036  p :     8.157821
      px      :     2.633893
      py      :     2.633892
      dz2     :     0.003130  d :     0.213431
      dxz     :     0.063543
      dyz     :     0.063543
      dx2y2   :     0.041606
      dxy     :     0.041609
      f0      :     0.007819  f :     0.054725
      f+1     :     0.002076
      f-1     :     0.002076
      f+2     :     0.016681
      f-2     :     0.016682
      f+3     :     0.000000
      f-3     :     0.009392
      g0      :     0.000543  g :     0.008057
      g+1     :     0.000268
      g-1     :     0.000268
      g+2     :     0.001568
      g-2     :     0.001568
      g+3     :     0.000000
      g-3     :     0.003510
      g+4     :     0.000166
      g-4     :     0.000166
      h0      :     0.000180  h :     0.001690
      h+1     :     0.000222
      h-1     :     0.000222
      h+2     :     0.000027
      h-2     :     0.000027
      h+3     :     0.000000
      h-3     :     0.000295
      h+4     :     0.000318
      h-4     :     0.000317
      h+5     :     0.000041
      h-5     :     0.000041
  1 H s       :     0.766312  s :     0.766312
      pz      :     0.157503  p :     0.394908
      px      :     0.080649
      py      :     0.156755
      dz2     :     0.063173  d :     0.307134
      dxz     :     0.007585
      dyz     :     0.093222
      dx2y2   :     0.052032
      dxy     :     0.091123
      f0      :     0.005215  f :     0.130884
      f+1     :     0.001828
      f-1     :     0.045546
      f+2     :     0.020142
      f-2     :     0.006140
      f+3     :     0.045503
      f-3     :     0.006510
      g0      :     0.007294  g :     0.045707
      g+1     :     0.000290
      g-1     :     0.002885
      g+2     :     0.009128
      g-2     :     0.001944
      g+3     :     0.002947
      g-3     :     0.004156
      g+4     :     0.000939
      g-4     :     0.016124
  2 H s       :     0.766318  s :     0.766318
      pz      :     0.157511  p :     0.394928
      px      :     0.137734
      py      :     0.099683
      dz2     :     0.063177  d :     0.307142
      dxz     :     0.071812
      dyz     :     0.028996
      dx2y2   :     0.081354
      dxy     :     0.061804
      f0      :     0.005215  f :     0.130880
      f+1     :     0.034615
      f-1     :     0.012758
      f+2     :     0.009640
      f-2     :     0.016642
      f+3     :     0.045501
      f-3     :     0.006509
      g0      :     0.007294  g :     0.045702
      g+1     :     0.002236
      g-1     :     0.000939
      g+2     :     0.003739
      g-2     :     0.007331
      g+3     :     0.002946
      g-3     :     0.004155
      g+4     :     0.012326
      g-4     :     0.004736
  3 H s       :     0.766318  s :     0.766318
      pz      :     0.157511  p :     0.394928
      px      :     0.137734
      py      :     0.099683
      dz2     :     0.063177  d :     0.307142
      dxz     :     0.071812
      dyz     :     0.028996
      dx2y2   :     0.081354
      dxy     :     0.061804
      f0      :     0.005215  f :     0.130880
      f+1     :     0.034615
      f-1     :     0.012758
      f+2     :     0.009640
      f-2     :     0.016642
      f+3     :     0.045501
      f-3     :     0.006509
      g0      :     0.007294  g :     0.045702
      g+1     :     0.002236
      g-1     :     0.000939
      g+2     :     0.003739
      g-2     :     0.007331
      g+3     :     0.002946
      g-3     :     0.004155
      g+4     :     0.012326
      g-4     :     0.004736

SPIN
  0 P s       :     0.000000  s :     0.000000
      pz      :    -0.000000  p :    -0.000000
      px      :    -0.000000
      py      :    -0.000000
      dz2     :    -0.000000  d :    -0.000000
      dxz     :    -0.000000
      dyz     :     0.000000
      dx2y2   :    -0.000000
      dxy     :    -0.000000
      f0      :    -0.000000  f :    -0.000000
      f+1     :    -0.000000
      f-1     :     0.000000
      f+2     :     0.000000
      f-2     :     0.000000
      f+3     :    -0.000000
      f-3     :    -0.000000
      g0      :     0.000000  g :    -0.000000
      g+1     :    -0.000000
      g-1     :     0.000000
      g+2     :     0.000000
      g-2     :    -0.000000
      g+3     :    -0.000000
      g-3     :    -0.000000
      g+4     :    -0.000000
      g-4     :    -0.000000
      h0      :     0.000000  h :     0.000000
      h+1     :     0.000000
      h-1     :     0.000000
      h+2     :     0.000000
      h-2     :    -0.000000
      h+3     :     0.000000
      h-3     :     0.000000
      h+4     :     0.000000
      h-4     :    -0.000000
      h+5     :     0.000000
      h-5     :    -0.000000
  1 H s       :    -0.000000  s :    -0.000000
      pz      :    -0.000000  p :    -0.000000
      px      :    -0.000000
      py      :    -0.000000
      dz2     :    -0.000000  d :     0.000000
      dxz     :    -0.000000
      dyz     :     0.000000
      dx2y2   :    -0.000000
      dxy     :     0.000000
      f0      :    -0.000000  f :    -0.000000
      f+1     :    -0.000000
      f-1     :     0.000000
      f+2     :    -0.000000
      f-2     :     0.000000
      f+3     :    -0.000000
      f-3     :    -0.000000
      g0      :     0.000000  g :     0.000000
      g+1     :     0.000000
      g-1     :     0.000000
      g+2     :    -0.000000
      g-2     :    -0.000000
      g+3     :     0.000000
      g-3     :    -0.000000
      g+4     :    -0.000000
      g-4     :     0.000000
  2 H s       :    -0.000000  s :    -0.000000
      pz      :     0.000000  p :     0.000000
      px      :     0.000000
      py      :     0.000000
      dz2     :    -0.000000  d :     0.000000
      dxz     :    -0.000000
      dyz     :    -0.000000
      dx2y2   :     0.000000
      dxy     :     0.000000
      f0      :    -0.000000  f :    -0.000000
      f+1     :    -0.000000
      f-1     :    -0.000000
      f+2     :    -0.000000
      f-2     :    -0.000000
      f+3     :    -0.000000
      f-3     :     0.000000
      g0      :     0.000000  g :     0.000000
      g+1     :     0.000000
      g-1     :    -0.000000
      g+2     :     0.000000
      g-2     :    -0.000000
      g+3     :     0.000000
      g-3     :    -0.000000
      g+4     :    -0.000000
      g-4     :     0.000000
  3 H s       :     0.000000  s :     0.000000
      pz      :     0.000000  p :    -0.000000
      px      :    -0.000000
      py      :     0.000000
      dz2     :     0.000000  d :     0.000000
      dxz     :     0.000000
      dyz     :     0.000000
      dx2y2   :    -0.000000
      dxy     :     0.000000
      f0      :    -0.000000  f :    -0.000000
      f+1     :    -0.000000
      f-1     :    -0.000000
      f+2     :    -0.000000
      f-2     :    -0.000000
      f+3     :     0.000000
      f-3     :    -0.000000
      g0      :     0.000000  g :     0.000000
      g+1     :     0.000000
      g-1     :     0.000000
      g+2     :    -0.000000
      g-2     :    -0.000000
      g+3     :     0.000000
      g-3     :     0.000000
      g+4     :    -0.000000
      g-4     :     0.000000


                      *****************************
                      * MAYER POPULATION ANALYSIS *
                      *****************************

  NA   - Mulliken gross atomic population
  ZA   - Total nuclear charge
  QA   - Mulliken gross atomic charge
  VA   - Mayer's total valence
  BVA  - Mayer's bonded valence
  FA   - Mayer's free valence

  ATOM       NA         ZA         QA         VA         BVA        FA
  0 P     15.1054    15.0000    -0.1054     2.8841     2.8841     0.0000
  1 H      0.9648     1.0000     0.0352     0.8471     0.8471     0.0000
  2 H      0.9648     1.0000     0.0352     0.8471     0.8471     0.0000
  3 H      0.9649     1.0000     0.0351     0.8472     0.8472    -0.0000

  Mayer bond orders larger than 0.1
B(  0-P ,  1-H ) :   0.9613 B(  0-P ,  2-H ) :   0.9613 B(  0-P ,  3-H ) :   0.9615 


-------
TIMINGS
-------

Total SCF time: 0 days 1 hours 0 min 25 sec 

Total time                  ....    3625.165 sec
Sum of individual times     ....    3624.291 sec  (100.0%)

Fock matrix formation       ....    3613.464 sec  ( 99.7%)
  XC integration            ....     135.228 sec  (  3.7% of F)
    Basis function eval.    ....       9.883 sec  (  7.3% of XC)
    Density eval.           ....      28.947 sec  ( 21.4% of XC)
    XC-Functional eval.     ....       1.150 sec  (  0.9% of XC)
    XC-Potential eval.      ....      94.473 sec  ( 69.9% of XC)
Diagonalization             ....       1.470 sec  (  0.0%)
Density matrix formation    ....       0.028 sec  (  0.0%)
Population analysis         ....       0.124 sec  (  0.0%)
Initial guess               ....       6.120 sec  (  0.2%)
Orbital Transformation      ....       0.000 sec  (  0.0%)
Orbital Orthonormalization  ....       0.000 sec  (  0.0%)
DIIS solution               ....       0.637 sec  (  0.0%)
Grid generation             ....       2.446 sec  (  0.1%)

-------------------------   --------------------
FINAL SINGLE POINT ENERGY      -342.996893659247
-------------------------   --------------------


                            ***************************************
                            *     ORCA property calculations      *
                            ***************************************

                                    ---------------------
                                    Active property flags
                                    ---------------------
   (+) Dipole Moment
   (+) Polarizability


------------------------------------------------------------------------------
                       ORCA ELECTRIC PROPERTIES CALCULATION
------------------------------------------------------------------------------

Dipole Moment Calculation                       ... on
Quadrupole Moment Calculation                   ... off
Polarizability Calculation                      ... Analytic (CP-SCF)
GBWName                                         ... ph3_pbe.gbw
Electron density file                           ... ph3_pbe.scfp.tmp
The origin for moment calculation is the CENTER OF MASS  = ( 0.000000,  0.000000 -0.129711)

-------------
DIPOLE MOMENT
-------------
                                X             Y             Z
Electronic contribution:      0.00000       0.00000       1.80305
Nuclear contribution   :      0.00000       0.00000      -2.04011
                        -----------------------------------------
Total Dipole Moment    :      0.00000       0.00000      -0.23707
                        -----------------------------------------
Magnitude (a.u.)       :      0.23707
Magnitude (Debye)      :      0.60257



--------------------
Rotational spectrum 
--------------------
 
Rotational constants in cm-1:     4.444202     4.444000     3.915670 
Rotational constants in MHz : 133233.835516 133227.760900 117388.830082 

 Dipole components along the rotational axes: 
x,y,z [a.u.] :     0.000004     0.000000    -0.237066 
x,y,z [Debye]:     0.000009     0.000000    -0.602574 

 
Transforming and storing MO dipole integrals   ... done

                ... starting polarizability calculation

Opening the Dipole integral file               ... (ph3_pbe.dmo.tmp) done
Reading Dipole-MO integrals                    ... done
Solving CP-SCF equations                       ... 
------------------------------------------------------------------------------
                           ORCA CP-SCF CALCULATION
------------------------------------------------------------------------------

Input orbitals are from        ... ph3_pbe.gbw
Input Perturbation             ... ph3_pbe.cpv.tmp
Wavefunction output            ... ph3_pbe.cpu.tmp
Perturbation mode              ... Real perturbation (singlet)
Solver                         ... POPLE
Max. number of iterations      ... 200
Convergence tolerance          ... 1.000e-06
Integral handling              ... Direct
Number of perturbations        ... 3
Number of operators            ... 2
Orbital ranges used for CP-SCF:
 Operator 0:  Orbitals   0...  8  to   9...404
 Operator 1:  Orbitals   0...  8  to   9...404
DFT calculation                         ... on
Exchange functional (SCF)               ... PBE
Exchange functional (CP-SCF)            ... PBE
   PBE kappa parameter  XKappa (SCF)    ...  0.804000
   PBE kappa parameter  XKappa (CP-SCF) ...  0.804000
   PBE mue parameter   XMuePBE (SCF)    ...  0.219520
   PBE mue parameter   XMuePBE (CP-SCF) ...  0.219520
Correlation functional (SCF)            ... PBE
Correlation functional (CP-SCF)         ... PBE
   PBE beta parameter CBetaPBE (SCF)    ...  0.066725
   PBE beta parameter CBetaPBE (CP-SCF) ...  0.066725
 LDA part of GGA corr.  LDAOpt (SCF)    ... PW91-LDA
 LDA part of GGA corr.  LDAOpt (CP-SCF) ... PW91-LDA
Variables per vector in CP-SCF ... 7128
Number of vectors sought       ... 3
Recalculating density on grid  ... done
Calculating the xc-kernel      ... done
     CP-SCF ITERATION   0: 
     CP-SCF ITERATION   1:      0.132025676827
     CP-SCF ITERATION   2:      0.003669987626
     CP-SCF ITERATION   3:      0.000030603865
     CP-SCF ITERATION   4:      0.000000233984
done
Reading CP-SCF coefficients                    ... done
Doing the polarizability tensor   ... done
Cleaning up                                    ... done

-------------------------
THE POLARIZABILITY TENSOR
-------------------------

The raw cartesian tensor (atomic units):
   31.15721      0.00000     -0.00000  
    0.00000     31.15784      0.00024  
   -0.00000      0.00024     33.36807  
diagonalized tensor: 
   31.15721     31.15784     33.36807  

    1.00000      0.00004     -0.00000  
   -0.00004      1.00000      0.00011  
    0.00000     -0.00011      1.00000  

Isotropic polarizability :  31.89437


Timings for individual modules:

Sum of individual times         ...     6041.063 sec (= 100.684 min)
GTO integral calculation        ...        4.741 sec (=   0.079 min)   0.1 %
SCF iterations                  ...     3628.329 sec (=  60.472 min)  60.1 %
Solution of CP-SCF eqns.        ...     2407.992 sec (=  40.133 min)  39.9 %
                             ****ORCA TERMINATED NORMALLY****
TOTAL RUN TIME: 0 days 1 hours 40 minutes 41 seconds 556 msec
