
                                 *****************
                                 * O   R   C   A *
                                 *****************

           --- An Ab Initio, DFT and Semiempirical electronic structure package ---

                  #######################################################
                  #                        -***-                        #
                  #          Department of theory and spectroscopy      #
                  #               Directorship: Frank Neese             #
                  #        Max Planck Institute fuer Kohlenforschung    #
                  #                Kaiser Wilhelm Platz 1               #
                  #                 D-45470 Muelheim/Ruhr               #
                  #                      Germany                        #
                  #                                                     #
                  #                  All rights reserved                #
                  #                        -***-                        #
                  #######################################################


                         Program Version 4.1.2  - RELEASE  -


 With contributions from (in alphabetic order):
   Daniel Aravena         : Magnetic Properties
   Michael Atanasov       : Ab Initio Ligand Field Theory
   Alexander A. Auer      : GIAO ZORA
   Ute Becker             : Parallelization
   Giovanni Bistoni       : ED, Open-shell LED
   Martin Brehm           : Molecular dynamics
   Dmytro Bykov           : SCF Hessian
   Vijay G. Chilkuri      : MRCI spin determinant printing
   Dipayan Datta          : RHF DLPNO-CCSD density
   Achintya Kumar Dutta   : EOM-CC, STEOM-CC
   Dmitry Ganyushin       : Spin-Orbit,Spin-Spin,Magnetic field MRCI
   Miquel Garcia          : C-PCM Hessian
   Yang Guo               : DLPNO-NEVPT2, CIM, IAO-localization
   Andreas Hansen         : Spin unrestricted coupled pair/coupled cluster methods
   Benjamin Helmich-Paris : CASSCF linear response (MC-RPA)
   Lee Huntington         : MR-EOM, pCC
   Robert Izsak           : Overlap fitted RIJCOSX, COSX-SCS-MP3, EOM
   Christian Kollmar      : KDIIS, OOCD, Brueckner-CCSD(T), CCSD density
   Simone Kossmann        : Meta GGA functionals, TD-DFT gradient, OOMP2, MP2 Hessian
   Martin Krupicka        : AUTO-CI
   Lucas Lang             : DCDCAS
   Dagmar Lenk            : GEPOL surface, SMD
   Dimitrios Liakos       : Extrapolation schemes; parallel MDCI
   Dimitrios Manganas     : ROCIS; embedding schemes
   Dimitrios Pantazis     : SARC Basis sets
   Taras Petrenko         : DFT Hessian,TD-DFT gradient, ASA, ECA, R-Raman, ABS, FL, XAS/XES, NRVS
   Peter Pinski           : DLPNO-MP2, DLPNO-MP2 Gradient
   Christoph Reimann      : Effective Core Potentials
   Marius Retegan         : Local ZFS, SOC
   Christoph Riplinger    : Optimizer, TS searches, QM/MM, DLPNO-CCSD(T), (RO)-DLPNO pert. Triples
   Tobias Risthaus        : Range-separated hybrids, TD-DFT gradient, RPA, STAB
   Michael Roemelt        : Restricted open shell CIS
   Masaaki Saitow         : Open-shell DLPNO
   Barbara Sandhoefer     : DKH picture change effects
   Avijit Sen             : IP-ROCIS
   Kantharuban Sivalingam : CASSCF convergence, NEVPT2, FIC-MRCI
   Bernardo de Souza      : ESD, SOC TD-DFT
   Georgi Stoychev        : AutoAux, RI-MP2 NMR
   Willem Van den Heuvel  : Paramagnetic NMR
   Boris Wezisla          : Elementary symmetry handling
   Frank Wennmohs         : Technical directorship


 We gratefully acknowledge several colleagues who have allowed us to
 interface, adapt or use parts of their codes:
   Stefan Grimme, W. Hujo, H. Kruse,             : VdW corrections, initial TS optimization,
                  C. Bannwarth                     DFT functionals, gCP, sTDA/sTD-DF
   Ed Valeev                                     : LibInt (2-el integral package), F12 methods
   Garnet Chan, S. Sharma, J. Yang, R. Olivares  : DMRG
   Ulf Ekstrom                                   : XCFun DFT Library
   Mihaly Kallay                                 : mrcc  (arbitrary order and MRCC methods)
   Andreas Klamt, Michael Diedenhofen            : otool_cosmo (COSMO solvation model)
   Jiri Pittner, Ondrej Demel                    : Mk-CCSD
   Frank Weinhold                                : gennbo (NPA and NBO analysis)
   Christopher J. Cramer and Donald G. Truhlar   : smd solvation model
   Lars Goerigk                                  : TD-DFT with DH, B97 family of functionals
   V. Asgeirsson, H. Jonsson                     : NEB implementation
   FAccTs GmbH                                   : IRC, NEB, NEB-TS, Multilevel


 Your calculation uses the libint2 library for the computation of 2-el integrals
 For citations please refer to: http://libint.valeyev.net

 This ORCA versions uses:
   CBLAS   interface :  Fast vector & matrix operations
   LAPACKE interface :  Fast linear algebra routines
   SCALAPACK package :  Parallel linear algebra routines


----- Orbital basis set information -----
Your calculation utilizes the basis: aug-pc-4
   H, C-F              : F. Jensen, J. Chem. Phys. 115, 9113 (2001).
                         F. Jensen, J. Chem. Phys. 116, 7372 (2002).
                         F. Jensen, J. Chem. Phys. 117, 9234 (2002).
   Si-Cl               : F. Jensen, T. Helgaker, J. Chem. Phys. 121, 3463 (2004).
   He-B, Ne-Mg, Al, Ar : F. Jensen, J. Phys. Chem. A 111, 11198 (2007).
   K, Ca, Ga-Kr        : F. Jensen, J. Chem. Phys. 136, 094110 (2012).
   Sc-Zn               : F. Jensen, J. Chem. Phys. 138, 014107 (2013).

================================================================================
                                        WARNINGS
                       Please study these warnings very carefully!
================================================================================


INFO   : the flag for use of LIBINT has been found!

================================================================================
                                       INPUT FILE
================================================================================
NAME = ph3o_pbe.inp
|  1> !uks pbe nori aug-pc-4 grid7 nofinalgrid verytightscf
|  2> 
|  3> %maxcore 1500
|  4> 
|  5> %pal nprocs 4 end
|  6> 
|  7> %scf
|  8> 	maxiter 200
|  9> end
| 10> %elprop
| 11> 	dipole true
| 12> 	 polar 1
| 13> 	 maxiter 200
| 14> end
| 15> 
| 16> * xyz 0 1
| 17> P 0.0000000000 0.0000000000 -0.3836153961
| 18> H -1.2521120981 0.0000000000 -1.0264054293
| 19> H 0.6260878053 -1.0843997178 -1.0264202208
| 20> H 0.6260878053 1.0843997178 -1.0264202208
| 21> O 0.0000000000 0.0000000008 1.1041846038
| 22> *
| 23> 
| 24>                          ****END OF INPUT****
================================================================================

                       ****************************
                       * Single Point Calculation *
                       ****************************

---------------------------------
CARTESIAN COORDINATES (ANGSTROEM)
---------------------------------
  P      0.000000    0.000000   -0.383615
  H     -1.252112    0.000000   -1.026405
  H      0.626088   -1.084400   -1.026420
  H      0.626088    1.084400   -1.026420
  O      0.000000    0.000000    1.104185

----------------------------
CARTESIAN COORDINATES (A.U.)
----------------------------
  NO LB      ZA    FRAG     MASS         X           Y           Z
   0 P    15.0000    0    30.974    0.000000    0.000000   -0.724928
   1 H     1.0000    0     1.008   -2.366149    0.000000   -1.939625
   2 H     1.0000    0     1.008    1.183134   -2.049218   -1.939653
   3 H     1.0000    0     1.008    1.183134    2.049218   -1.939653
   4 O     8.0000    0    15.999    0.000000    0.000000    2.086607

--------------------------------
INTERNAL COORDINATES (ANGSTROEM)
--------------------------------
 P      0   0   0     0.000000000000     0.00000000     0.00000000
 H      1   0   0     1.407467133893     0.00000000     0.00000000
 H      1   2   0     1.407517932592   100.78629709     0.00000000
 H      1   2   3     1.407517932592   100.78629709   103.31027706
 O      1   2   3     1.487799999900   117.17435921   231.65513849

---------------------------
INTERNAL COORDINATES (A.U.)
---------------------------
 P      0   0   0     0.000000000000     0.00000000     0.00000000
 H      1   0   0     2.659727425553     0.00000000     0.00000000
 H      1   2   0     2.659823421182   100.78629709     0.00000000
 H      1   2   3     2.659823421182   100.78629709   103.31027706
 O      1   2   3     2.811534541859   117.17435921   231.65513849

---------------------
BASIS SET INFORMATION
---------------------
There are 3 groups of distinct atoms

 Group   1 Type P   : 44s27p7d4f3g2h contracted to 8s7p7d4f3g2h pattern {15121211111/111111111/1111111/1111/111/11}
 Group   2 Type H   : 12s7p4d3f2g contracted to 8s7p4d3f2g pattern {51111111/1111111/1111/111/11}
 Group   3 Type O   : 27s12p7d4f3g2h contracted to 9s8p7d4f3g2h pattern {1191111111/51111111/1111111/1111/111/11}

Atom   0P    basis set group =>   1
Atom   1H    basis set group =>   2
Atom   2H    basis set group =>   2
Atom   3H    basis set group =>   2
Atom   4O    basis set group =>   3


           ************************************************************
           *        Program running with 4 parallel MPI-processes     *
           *              working on a common directory               *
           ************************************************************
------------------------------------------------------------------------------
                           ORCA GTO INTEGRAL CALCULATION
------------------------------------------------------------------------------

                         BASIS SET STATISTICS AND STARTUP INFO

 # of primitive gaussian shells          ...  226
 # of primitive gaussian functions       ...  688
 # of contracted shells                  ...  136
 # of contracted basis functions         ...  550
 Highest angular momentum                ...    5
 Maximum contraction depth               ...   15
 Integral package used                   ... LIBINT
 Integral threshhold            Thresh   ...  1.000e-12
 Primitive cut-off              TCut     ...  1.000e-14


------------------------------ INTEGRAL EVALUATION ----------------------------


 * One electron integrals 
 Pre-screening matrix                    ... done
 Shell pair data                         ... done (   0.004 sec)



           ************************************************************
           *        Program running with 4 parallel MPI-processes     *
           *              working on a common directory               *
           ************************************************************
-------------------------------------------------------------------------------
                                 ORCA SCF
-------------------------------------------------------------------------------

------------
SCF SETTINGS
------------
Hamiltonian:
 Density Functional     Method          .... DFT(GTOs)
 Exchange Functional    Exchange        .... PBE
   PBE kappa parameter   XKappa         ....  0.804000
   PBE mue parameter    XMuePBE         ....  0.219520
 Correlation Functional Correlation     .... PBE
   PBE beta parameter  CBetaPBE         ....  0.066725
 LDA part of GGA corr.  LDAOpt          .... PW91-LDA
 Gradients option       PostSCFGGA      .... off
   Density functional embedding theory  .... OFF
   NL short-range parameter             ....  6.400000


General Settings:
 Integral files         IntName         .... ph3o_pbe
 Hartree-Fock type      HFTyp           .... UHF
 Total Charge           Charge          ....    0
 Multiplicity           Mult            ....    1
 Number of Electrons    NEL             ....   26
 Basis Dimension        Dim             ....  550
 Nuclear Repulsion      ENuc            ....     65.4710294340 Eh

Convergence Acceleration:
 DIIS                   CNVDIIS         .... on
   Start iteration      DIISMaxIt       ....    12
   Startup error        DIISStart       ....  0.200000
   # of expansion vecs  DIISMaxEq       ....     5
   Bias factor          DIISBfac        ....   1.050
   Max. coefficient     DIISMaxC        ....  10.000
 Newton-Raphson         CNVNR           .... off
 SOSCF                  CNVSOSCF        .... off
 Level Shifting         CNVShift        .... on
   Level shift para.    LevelShift      ....    0.2500
   Turn off err/grad.   ShiftErr        ....    0.0010
 Zerner damping         CNVZerner       .... off
 Static damping         CNVDamp         .... on
   Fraction old density DampFac         ....    0.7000
   Max. Damping (<1)    DampMax         ....    0.9800
   Min. Damping (>=0)   DampMin         ....    0.0000
   Turn off err/grad.   DampErr         ....    0.1000
 Fernandez-Rico         CNVRico         .... off

SCF Procedure:
 Maximum # iterations   MaxIter         ....   200
 SCF integral mode      SCFMode         .... Direct
   Integral package                     .... LIBINT
 Reset frequency        DirectResetFreq ....    20
 Integral Threshold     Thresh          ....  1.000e-12 Eh
 Primitive CutOff       TCut            ....  1.000e-14 Eh

Convergence Tolerance:
 Convergence Check Mode ConvCheckMode   .... Total+1el-Energy
 Convergence forced     ConvForced      .... 0
 Energy Change          TolE            ....  1.000e-09 Eh
 1-El. energy change                    ....  1.000e-06 Eh
 DIIS Error             TolErr          ....  1.000e-08


Diagonalization of the overlap matrix:
Smallest eigenvalue                        ... 4.848e-07
Time for diagonalization                   ...    0.111 sec
Threshold for overlap eigenvalues          ... 1.000e-08
Number of eigenvalues below threshold      ... 0
Time for construction of square roots      ...    0.105 sec
Total time needed                          ...    0.218 sec

-------------------
DFT GRID GENERATION
-------------------

General Integration Accuracy     IntAcc      ...  5.670
Radial Grid Type                 RadialGrid  ... Gauss-Chebyshev
Angular Grid (max. acc.)         AngularGrid ... Lebedev-770
Angular grid pruning method      GridPruning ... 3 (G Style)
Weight generation scheme         WeightScheme... Becke
Basis function cutoff            BFCut       ...    1.0000e-12
Integration weight cutoff        WCut        ...    1.0000e-14
Grids for H and He will be reduced by one unit

# of grid points (after initial pruning)     ... 105710 (   0.0 sec)
# of grid points (after weights+screening)   ... 103030 (   0.0 sec)
nearest neighbour list constructed           ...    0.0 sec
Grid point re-assignment to atoms done       ...    0.0 sec
Grid point division into batches done        ...    2.2 sec
Reduced shell lists constructed in    3.1 sec

Total number of grid points                  ...   103030
Total number of batches                      ...     1613
Average number of points per batch           ...       63
Average number of grid points per atom       ...    20606
Average number of shells per batch           ...   100.69 (74.04%)
Average number of basis functions per batch  ...   419.94 (76.35%)
Average number of large shells per batch     ...    90.08 (89.46%)
Average number of large basis fcns per batch ...   377.55 (89.91%)
Maximum spatial batch extension              ...  13.82, 14.64, 14.86 au
Average spatial batch extension              ...   0.44,  0.48,  0.48 au

Time for grid setup =    3.586 sec

------------------------------
INITIAL GUESS: MODEL POTENTIAL
------------------------------
Loading Hartree-Fock densities                     ... done
Calculating cut-offs                               ... done
Setting up the integral package                    ... done
Initializing the effective Hamiltonian             ... done
Starting the Coulomb interaction                   ... done (   0.1 sec)
Reading the grid                                   ... done
Mapping shells                                     ... done
Starting the XC term evaluation                    ... done (   4.2 sec)
  promolecular density results
     # of electrons  =     25.998532162
     EX              =    -31.564150417
     EC              =     -0.925593722
     EX+EC           =    -32.489744139
Transforming the Hamiltonian                       ... done (   0.0 sec)
Diagonalizing the Hamiltonian                      ... done (   0.1 sec)
Back transforming the eigenvectors                 ... done (   0.0 sec)
Now organizing SCF variables                       ... done
                      ------------------
                      INITIAL GUESS DONE (   8.2 sec)
                      ------------------
--------------
SCF ITERATIONS
--------------
ITER       Energy         Delta-E        Max-DP      RMS-DP      [F,P]     Damp
               ***  Starting incremental Fock matrix formation  ***
  0   -418.0417505157   0.000000000000 0.03001615  0.00025407  0.3784954 0.7000
  1   -418.1310233605  -0.089272844809 0.01343308  0.00011665  0.0635851 0.7000
                               ***Turning on DIIS***
  2   -418.1417065938  -0.010683233336 0.02474240  0.00016694  0.0488067 0.0000
  3   -418.2014230545  -0.059716460716 0.00885573  0.00006470  0.0315879 0.0000
  4   -418.2028391351  -0.001416080631 0.00706924  0.00002737  0.0159716 0.0000
  5   -418.2032194539  -0.000380318719 0.00166540  0.00001353  0.0042583 0.0000
  6   -418.2032601687  -0.000040714790 0.00063366  0.00000407  0.0011600 0.0000
  7   -418.2032633364  -0.000003167745 0.00026862  0.00000269  0.0003724 0.0000
  8   -418.2032637316  -0.000000395214 0.00003831  0.00000029  0.0000439 0.0000
  9   -418.2032637342  -0.000000002617 0.00008117  0.00000036  0.0000316 0.0000
 10   -418.2032637356  -0.000000001321 0.00009345  0.00000047  0.0000058 0.0000
 11   -418.2032637356  -0.000000000053 0.00009390  0.00000040  0.0000004 0.0000
 12   -418.2032637356   0.000000000000 0.00008170  0.00000063  0.0000003 0.0000
                 **** Energy Check signals convergence ****

               *****************************************************
               *                     SUCCESS                       *
               *           SCF CONVERGED AFTER  13 CYCLES          *
               *****************************************************


----------------
TOTAL SCF ENERGY
----------------

Total Energy       :         -418.20326374 Eh          -11379.88935 eV

Components:
Nuclear Repulsion  :           65.47102943 Eh            1781.55728 eV
Electronic Energy  :         -483.67429317 Eh          -13161.44663 eV
One Electron Energy:         -707.46894531 Eh          -19251.20871 eV
Two Electron Energy:          223.79465215 Eh            6089.76208 eV

Virial components:
Potential Energy   :         -835.87481176 Eh          -22745.30998 eV
Kinetic Energy     :          417.67154802 Eh           11365.42063 eV
Virial Ratio       :            2.00127305


DFT components:
N(Alpha)           :       13.000000099391 electrons
N(Beta)            :       13.000000099391 electrons
N(Total)           :       26.000000198783 electrons
E(X)               :      -31.829471778234 Eh       
E(C)               :       -0.924872453346 Eh       
E(XC)              :      -32.754344231580 Eh       
DFET-embed. en.    :        0.000000000000 Eh       

---------------
SCF CONVERGENCE
---------------

  Last Energy change         ...   -1.9838e-11  Tolerance :   1.0000e-09
  Last MAX-Density change    ...    6.8403e-05  Tolerance :   1.0000e-08
  Last RMS-Density change    ...    6.3397e-07  Tolerance :   1.0000e-09
  Last DIIS Error            ...    6.6767e-08  Tolerance :   1.0000e-08

             **** THE GBW FILE WAS UPDATED (ph3o_pbe.gbw) ****
             **** DENSITY FILE WAS UPDATED (ph3o_pbe.scfp.tmp) ****
             **** ENERGY FILE WAS UPDATED (ph3o_pbe.en.tmp) ****
----------------------
UHF SPIN CONTAMINATION
----------------------

Warning: in a DFT calculation there is little theoretical justification to 
         calculate <S**2> as in Hartree-Fock theory. We will do it anyways
         but you should keep in mind that the values have only limited relevance

Expectation value of <S**2>     :    -0.000000
Ideal value S*(S+1) for S=0.0   :     0.000000
Deviation                       :    -0.000000

----------------
ORBITAL ENERGIES
----------------
                 SPIN UP ORBITALS
  NO   OCC          E(Eh)            E(eV) 
   0   1.0000     -76.349587     -2077.5779 
   1   1.0000     -18.718868      -509.3663 
   2   1.0000      -6.363786      -173.1674 
   3   1.0000      -4.579197      -124.6063 
   4   1.0000      -4.579197      -124.6063 
   5   1.0000      -4.577346      -124.5559 
   6   1.0000      -0.890585       -24.2341 
   7   1.0000      -0.595096       -16.1934 
   8   1.0000      -0.403334       -10.9753 
   9   1.0000      -0.403328       -10.9751 
  10   1.0000      -0.347569        -9.4578 
  11   1.0000      -0.254721        -6.9313 
  12   1.0000      -0.254721        -6.9313 
  13   0.0000      -0.047717        -1.2984 
  14   0.0000      -0.033487        -0.9112 
  15   0.0000       0.000045         0.0012 
  16   0.0000       0.000049         0.0013 
  17   0.0000       0.008440         0.2297 
  18   0.0000       0.008440         0.2297 
  19   0.0000       0.027703         0.7538 
  20   0.0000       0.028761         0.7826 
  21   0.0000       0.039894         1.0856 
  22   0.0000       0.039897         1.0857 
  23   0.0000       0.050798         1.3823 
  24   0.0000       0.057116         1.5542 
  25   0.0000       0.057117         1.5542 
  26   0.0000       0.064813         1.7636 
  27   0.0000       0.064813         1.7637 
  28   0.0000       0.088396         2.4054 
  29   0.0000       0.095951         2.6110 
  30   0.0000       0.095955         2.6111 
  31   0.0000       0.098188         2.6718 
  32   0.0000       0.113497         3.0884 
  33   0.0000       0.113508         3.0887 
  34   0.0000       0.113696         3.0938 
  35   0.0000       0.117389         3.1943 
  36   0.0000       0.122283         3.3275 
  37   0.0000       0.122927         3.3450 
  38   0.0000       0.122936         3.3453 
  39   0.0000       0.142015         3.8644 
  40   0.0000       0.142020         3.8645 
  41   0.0000       0.143426         3.9028 
  42   0.0000       0.162779         4.4294 
  43   0.0000       0.162787         4.4297 
  44   0.0000       0.182215         4.9583 
  45   0.0000       0.182215         4.9583 
  46   0.0000       0.182508         4.9663 
  47   0.0000       0.191652         5.2151 
  48   0.0000       0.210117         5.7176 
  49   0.0000       0.210849         5.7375 
  50   0.0000       0.210859         5.7378 
  51   0.0000       0.214198         5.8286 
  52   0.0000       0.214206         5.8288 
  53   0.0000       0.223893         6.0924 
  54   0.0000       0.224225         6.1015 
  55   0.0000       0.224230         6.1016 
  56   0.0000       0.237675         6.4675 
  57   0.0000       0.249044         6.7768 
  58   0.0000       0.250923         6.8280 
  59   0.0000       0.250944         6.8285 
  60   0.0000       0.265561         7.2263 
  61   0.0000       0.265619         7.2279 
  62   0.0000       0.265629         7.2281 
  63   0.0000       0.288255         7.8438 
  64   0.0000       0.288271         7.8442 
  65   0.0000       0.292809         7.9677 
  66   0.0000       0.292826         7.9682 
  67   0.0000       0.293455         7.9853 
  68   0.0000       0.297309         8.0902 
  69   0.0000       0.297833         8.1044 
  70   0.0000       0.302990         8.2448 
  71   0.0000       0.302999         8.2450 
  72   0.0000       0.314794         8.5660 
  73   0.0000       0.315282         8.5793 
  74   0.0000       0.315295         8.5796 
  75   0.0000       0.334749         9.1090 
  76   0.0000       0.334757         9.1092 
  77   0.0000       0.351208         9.5569 
  78   0.0000       0.351210         9.5569 
  79   0.0000       0.355625         9.6771 
  80   0.0000       0.377791        10.2802 
  81   0.0000       0.382226        10.4009 
  82   0.0000       0.382231        10.4010 
  83   0.0000       0.387109        10.5338 
  84   0.0000       0.421285        11.4637 
  85   0.0000       0.421691        11.4748 
  86   0.0000       0.421693        11.4749 
  87   0.0000       0.429877        11.6975 
  88   0.0000       0.433040        11.7836 
  89   0.0000       0.433044        11.7837 
  90   0.0000       0.440422        11.9845 
  91   0.0000       0.440444        11.9851 
  92   0.0000       0.440933        11.9984 
  93   0.0000       0.446941        12.1619 
  94   0.0000       0.454374        12.3642 
  95   0.0000       0.457786        12.4570 
  96   0.0000       0.457787        12.4570 
  97   0.0000       0.460082        12.5195 
  98   0.0000       0.460084        12.5195 
  99   0.0000       0.473586        12.8869 
 100   0.0000       0.484011        13.1706 
 101   0.0000       0.487659        13.2699 
 102   0.0000       0.487676        13.2703 
 103   0.0000       0.493130        13.4188 
 104   0.0000       0.493136        13.4189 
 105   0.0000       0.515482        14.0270 
 106   0.0000       0.515492        14.0273 
 107   0.0000       0.517488        14.0816 
 108   0.0000       0.519130        14.1262 
 109   0.0000       0.535654        14.5759 
 110   0.0000       0.535655        14.5759 
 111   0.0000       0.544624        14.8200 
 112   0.0000       0.561307        15.2740 
 113   0.0000       0.561331        15.2746 
 114   0.0000       0.571421        15.5492 
 115   0.0000       0.571471        15.5505 
 116   0.0000       0.572531        15.5794 
 117   0.0000       0.572551        15.5799 
 118   0.0000       0.580530        15.7970 
 119   0.0000       0.588270        16.0076 
 120   0.0000       0.597847        16.2682 
 121   0.0000       0.613115        16.6837 
 122   0.0000       0.613127        16.6840 
 123   0.0000       0.618277        16.8242 
 124   0.0000       0.618279        16.8242 
 125   0.0000       0.634141        17.2558 
 126   0.0000       0.638287        17.3687 
 127   0.0000       0.639515        17.4021 
 128   0.0000       0.639520        17.4022 
 129   0.0000       0.664745        18.0886 
 130   0.0000       0.664747        18.0887 
 131   0.0000       0.691520        18.8172 
 132   0.0000       0.691528        18.8174 
 133   0.0000       0.693167        18.8620 
 134   0.0000       0.693173        18.8622 
 135   0.0000       0.696565        18.9545 
 136   0.0000       0.702784        19.1237 
 137   0.0000       0.705543        19.1988 
 138   0.0000       0.732869        19.9424 
 139   0.0000       0.739333        20.1183 
 140   0.0000       0.739335        20.1183 
 141   0.0000       0.740556        20.1515 
 142   0.0000       0.746243        20.3063 
 143   0.0000       0.751597        20.4520 
 144   0.0000       0.751603        20.4522 
 145   0.0000       0.764882        20.8135 
 146   0.0000       0.764890        20.8137 
 147   0.0000       0.771876        21.0038 
 148   0.0000       0.789103        21.4726 
 149   0.0000       0.790363        21.5069 
 150   0.0000       0.790368        21.5070 
 151   0.0000       0.799690        21.7607 
 152   0.0000       0.813551        22.1379 
 153   0.0000       0.813552        22.1379 
 154   0.0000       0.820207        22.3190 
 155   0.0000       0.822798        22.3895 
 156   0.0000       0.822798        22.3895 
 157   0.0000       0.828731        22.5509 
 158   0.0000       0.836756        22.7693 
 159   0.0000       0.846824        23.0433 
 160   0.0000       0.846826        23.0433 
 161   0.0000       0.847766        23.0689 
 162   0.0000       0.847771        23.0690 
 163   0.0000       0.853437        23.2232 
 164   0.0000       0.864063        23.5124 
 165   0.0000       0.871879        23.7250 
 166   0.0000       0.872388        23.7389 
 167   0.0000       0.872401        23.7392 
 168   0.0000       0.902295        24.5527 
 169   0.0000       0.902307        24.5530 
 170   0.0000       0.908045        24.7092 
 171   0.0000       0.908050        24.7093 
 172   0.0000       0.919523        25.0215 
 173   0.0000       0.919540        25.0220 
 174   0.0000       0.922082        25.0911 
 175   0.0000       0.938516        25.5383 
 176   0.0000       0.938518        25.5384 
 177   0.0000       0.945723        25.7344 
 178   0.0000       0.958912        26.0933 
 179   0.0000       0.958916        26.0934 
 180   0.0000       0.963674        26.2229 
 181   0.0000       0.984853        26.7992 
 182   0.0000       0.997011        27.1301 
 183   0.0000       0.997025        27.1304 
 184   0.0000       1.016659        27.6647 
 185   0.0000       1.016672        27.6651 
 186   0.0000       1.023267        27.8445 
 187   0.0000       1.023272        27.8447 
 188   0.0000       1.055873        28.7318 
 189   0.0000       1.055898        28.7325 
 190   0.0000       1.068729        29.0816 
 191   0.0000       1.111772        30.2529 
 192   0.0000       1.140969        31.0474 
 193   0.0000       1.155971        31.4556 
 194   0.0000       1.155973        31.4556 
 195   0.0000       1.168504        31.7966 
 196   0.0000       1.175961        31.9995 
 197   0.0000       1.175972        31.9998 
 198   0.0000       1.194064        32.4921 
 199   0.0000       1.194072        32.4923 
 200   0.0000       1.203881        32.7593 
 201   0.0000       1.210756        32.9464 
 202   0.0000       1.210762        32.9465 
 203   0.0000       1.255794        34.1719 
 204   0.0000       1.255804        34.1722 
 205   0.0000       1.262989        34.3677 
 206   0.0000       1.274670        34.6855 
 207   0.0000       1.274671        34.6856 
 208   0.0000       1.297174        35.2979 
 209   0.0000       1.313382        35.7389 
 210   0.0000       1.313384        35.7390 
 211   0.0000       1.344731        36.5920 
 212   0.0000       1.418571        38.6013 
 213   0.0000       1.420694        38.6590 
 214   0.0000       1.420697        38.6591 
 215   0.0000       1.464602        39.8538 
 216   0.0000       1.497102        40.7382 
 217   0.0000       1.497105        40.7383 
 218   0.0000       1.521234        41.3949 
 219   0.0000       1.521242        41.3951 
 220   0.0000       1.532307        41.6962 
 221   0.0000       1.540847        41.9286 
 222   0.0000       1.540853        41.9287 
 223   0.0000       1.543895        42.0115 
 224   0.0000       1.600004        43.5383 
 225   0.0000       1.600006        43.5384 
 226   0.0000       1.629609        44.3439 
 227   0.0000       1.658320        45.1252 
 228   0.0000       1.658522        45.1307 
 229   0.0000       1.658525        45.1308 
 230   0.0000       1.664987        45.3066 
 231   0.0000       1.694162        46.1005 
 232   0.0000       1.708064        46.4788 
 233   0.0000       1.708068        46.4789 
 234   0.0000       1.720362        46.8134 
 235   0.0000       1.747303        47.5465 
 236   0.0000       1.747311        47.5467 
 237   0.0000       1.785368        48.5823 
 238   0.0000       1.786760        48.6202 
 239   0.0000       1.786767        48.6204 
 240   0.0000       1.853681        50.4412 
 241   0.0000       1.913363        52.0652 
 242   0.0000       1.913372        52.0655 
 243   0.0000       1.950044        53.0634 
 244   0.0000       2.006086        54.5884 
 245   0.0000       2.006087        54.5884 
 246   0.0000       2.026193        55.1355 
 247   0.0000       2.026200        55.1357 
 248   0.0000       2.052644        55.8553 
 249   0.0000       2.115413        57.5633 
 250   0.0000       2.123865        57.7933 
 251   0.0000       2.148515        58.4641 
 252   0.0000       2.148523        58.4643 
 253   0.0000       2.306909        62.7742 
 254   0.0000       2.306937        62.7750 
 255   0.0000       2.310352        62.8679 
 256   0.0000       2.379488        64.7492 
 257   0.0000       2.379494        64.7493 
 258   0.0000       2.469470        67.1977 
 259   0.0000       2.557206        69.5851 
 260   0.0000       2.557215        69.5853 
 261   0.0000       2.575846        70.0923 
 262   0.0000       2.575851        70.0925 
 263   0.0000       2.682394        72.9916 
 264   0.0000       2.682409        72.9921 
 265   0.0000       2.687793        73.1386 
 266   0.0000       2.728515        74.2467 
 267   0.0000       2.781499        75.6884 
 268   0.0000       2.843455        77.3744 
 269   0.0000       2.843461        77.3745 
 270   0.0000       2.919550        79.4450 
 271   0.0000       2.919561        79.4453 
 272   0.0000       2.964599        80.6708 
 273   0.0000       2.998571        81.5953 
 274   0.0000       2.998578        81.5955 
 275   0.0000       3.010706        81.9255 
 276   0.0000       3.064647        83.3933 
 277   0.0000       3.133529        85.2676 
 278   0.0000       3.133535        85.2678 
 279   0.0000       3.200496        87.0899 
 280   0.0000       3.201977        87.1302 
 281   0.0000       3.287551        89.4588 
 282   0.0000       3.287554        89.4589 
 283   0.0000       3.298447        89.7553 
 284   0.0000       3.374114        91.8143 
 285   0.0000       3.374116        91.8144 
 286   0.0000       3.448737        93.8449 
 287   0.0000       3.469708        94.4156 
 288   0.0000       3.469719        94.4158 
 289   0.0000       3.482887        94.7742 
 290   0.0000       3.482893        94.7743 
 291   0.0000       3.545866        96.4879 
 292   0.0000       3.545871        96.4881 
 293   0.0000       3.552223        96.6609 
 294   0.0000       3.568160        97.0946 
 295   0.0000       3.624737        98.6341 
 296   0.0000       3.639322        99.0310 
 297   0.0000       3.641000        99.0766 
 298   0.0000       3.641003        99.0767 
 299   0.0000       3.709387       100.9376 
 300   0.0000       3.722225       101.2869 
 301   0.0000       3.722270       101.2881 
 302   0.0000       3.800797       103.4249 
 303   0.0000       3.800806       103.4252 
 304   0.0000       3.803409       103.4960 
 305   0.0000       3.829187       104.1975 
 306   0.0000       3.829202       104.1979 
 307   0.0000       3.877208       105.5042 
 308   0.0000       3.973162       108.1152 
 309   0.0000       3.973165       108.1153 
 310   0.0000       4.018511       109.3493 
 311   0.0000       4.102339       111.6303 
 312   0.0000       4.102352       111.6307 
 313   0.0000       4.123818       112.2148 
 314   0.0000       4.123835       112.2152 
 315   0.0000       4.185733       113.8996 
 316   0.0000       4.255953       115.8104 
 317   0.0000       4.255963       115.8106 
 318   0.0000       4.289196       116.7149 
 319   0.0000       4.345492       118.2469 
 320   0.0000       4.345508       118.2473 
 321   0.0000       4.362035       118.6970 
 322   0.0000       4.455708       121.2460 
 323   0.0000       4.520765       123.0163 
 324   0.0000       4.520769       123.0164 
 325   0.0000       4.619966       125.7157 
 326   0.0000       4.619978       125.7160 
 327   0.0000       4.688886       127.5911 
 328   0.0000       4.829695       131.4227 
 329   0.0000       4.829702       131.4229 
 330   0.0000       4.938572       134.3854 
 331   0.0000       5.083709       138.3348 
 332   0.0000       5.099468       138.7636 
 333   0.0000       5.099482       138.7640 
 334   0.0000       5.123265       139.4111 
 335   0.0000       5.165560       140.5620 
 336   0.0000       5.186426       141.1298 
 337   0.0000       5.186449       141.1305 
 338   0.0000       5.282938       143.7560 
 339   0.0000       5.282994       143.7576 
 340   0.0000       5.382457       146.4641 
 341   0.0000       5.382470       146.4645 
 342   0.0000       5.398186       146.8921 
 343   0.0000       5.478874       149.0878 
 344   0.0000       5.572790       151.6433 
 345   0.0000       5.572800       151.6436 
 346   0.0000       5.600817       152.4060 
 347   0.0000       5.716649       155.5579 
 348   0.0000       5.716662       155.5583 
 349   0.0000       5.784054       157.3921 
 350   0.0000       5.784067       157.3925 
 351   0.0000       5.807717       158.0360 
 352   0.0000       5.944847       161.7675 
 353   0.0000       6.057366       164.8293 
 354   0.0000       6.057373       164.8295 
 355   0.0000       6.072173       165.2322 
 356   0.0000       6.118085       166.4816 
 357   0.0000       6.118124       166.4826 
 358   0.0000       6.208672       168.9465 
 359   0.0000       6.208679       168.9468 
 360   0.0000       6.404033       174.2626 
 361   0.0000       6.433928       175.0761 
 362   0.0000       6.619464       180.1248 
 363   0.0000       6.701424       182.3550 
 364   0.0000       6.701454       182.3558 
 365   0.0000       6.978515       189.8950 
 366   0.0000       6.978515       189.8951 
 367   0.0000       7.062721       192.1864 
 368   0.0000       7.159812       194.8284 
 369   0.0000       7.279015       198.0721 
 370   0.0000       7.279031       198.0725 
 371   0.0000       7.497739       204.0238 
 372   0.0000       7.497746       204.0241 
 373   0.0000       7.619315       207.3321 
 374   0.0000       7.619328       207.3325 
 375   0.0000       7.653431       208.2605 
 376   0.0000       7.902626       215.0414 
 377   0.0000       7.965866       216.7622 
 378   0.0000       7.965876       216.7625 
 379   0.0000       8.045201       218.9210 
 380   0.0000       8.045232       218.9219 
 381   0.0000       8.063875       219.4292 
 382   0.0000       8.469303       230.4615 
 383   0.0000       8.469311       230.4617 
 384   0.0000       8.502307       231.3595 
 385   0.0000       8.567689       233.1387 
 386   0.0000       8.626083       234.7277 
 387   0.0000       8.626089       234.7278 
 388   0.0000       8.809667       239.7232 
 389   0.0000       8.809690       239.7239 
 390   0.0000       8.898374       242.1371 
 391   0.0000       8.952045       243.5975 
 392   0.0000       8.952053       243.5977 
 393   0.0000       8.957119       243.7356 
 394   0.0000       9.017273       245.3725 
 395   0.0000       9.017277       245.3726 
 396   0.0000       9.056958       246.4524 
 397   0.0000       9.185005       249.9367 
 398   0.0000       9.213224       250.7046 
 399   0.0000       9.226383       251.0627 
 400   0.0000       9.226395       251.0630 
 401   0.0000       9.335916       254.0432 
 402   0.0000       9.335965       254.0445 
 403   0.0000       9.511453       258.8198 
 404   0.0000       9.511455       258.8199 
 405   0.0000       9.557840       260.0820 
 406   0.0000       9.681319       263.4421 
 407   0.0000       9.681328       263.4423 
 408   0.0000       9.773059       265.9385 
 409   0.0000       9.773099       265.9396 
 410   0.0000       9.834106       267.5996 
 411   0.0000       9.951082       270.7827 
 412   0.0000       9.951117       270.7837 
 413   0.0000      10.319365       280.8042 
 414   0.0000      10.991030       299.0811 
 415   0.0000      11.077226       301.4266 
 416   0.0000      11.077242       301.4271 
 417   0.0000      11.147717       303.3448 
 418   0.0000      11.188109       304.4439 
 419   0.0000      11.188141       304.4448 
 420   0.0000      11.273164       306.7584 
 421   0.0000      11.379884       309.6624 
 422   0.0000      11.484587       312.5115 
 423   0.0000      11.484630       312.5127 
 424   0.0000      11.718669       318.8812 
 425   0.0000      11.718671       318.8813 
 426   0.0000      11.970574       325.7359 
 427   0.0000      12.083901       328.8197 
 428   0.0000      12.083901       328.8197 
 429   0.0000      12.098300       329.2115 
 430   0.0000      12.098306       329.2117 
 431   0.0000      12.223271       332.6121 
 432   0.0000      12.243999       333.1762 
 433   0.0000      12.288137       334.3772 
 434   0.0000      12.324938       335.3786 
 435   0.0000      12.324944       335.3788 
 436   0.0000      12.342491       335.8563 
 437   0.0000      12.421506       338.0064 
 438   0.0000      12.421510       338.0065 
 439   0.0000      12.461071       339.0830 
 440   0.0000      12.493731       339.9717 
 441   0.0000      12.493733       339.9718 
 442   0.0000      12.551681       341.5486 
 443   0.0000      12.551684       341.5487 
 444   0.0000      12.621049       343.4362 
 445   0.0000      12.621058       343.4364 
 446   0.0000      12.636715       343.8625 
 447   0.0000      12.734162       346.5142 
 448   0.0000      12.786546       347.9396 
 449   0.0000      12.808316       348.5320 
 450   0.0000      12.822457       348.9168 
 451   0.0000      12.822458       348.9168 
 452   0.0000      12.980218       353.2097 
 453   0.0000      12.985228       353.3460 
 454   0.0000      12.998729       353.7134 
 455   0.0000      12.998736       353.7136 
 456   0.0000      13.185849       358.8052 
 457   0.0000      13.223364       359.8260 
 458   0.0000      13.223369       359.8262 
 459   0.0000      13.255516       360.7009 
 460   0.0000      13.255550       360.7019 
 461   0.0000      13.476632       366.7178 
 462   0.0000      13.476680       366.7191 
 463   0.0000      13.835884       376.4935 
 464   0.0000      13.918730       378.7479 
 465   0.0000      13.918742       378.7482 
 466   0.0000      14.689020       399.7086 
 467   0.0000      16.218533       441.3287 
 468   0.0000      16.218534       441.3287 
 469   0.0000      16.669636       453.6038 
 470   0.0000      16.691094       454.1878 
 471   0.0000      16.691104       454.1880 
 472   0.0000      16.694454       454.2792 
 473   0.0000      16.694471       454.2796 
 474   0.0000      16.694475       454.2798 
 475   0.0000      16.697415       454.3598 
 476   0.0000      16.732994       455.3279 
 477   0.0000      16.732995       455.3279 
 478   0.0000      16.801247       457.1852 
 479   0.0000      16.801254       457.1854 
 480   0.0000      16.817739       457.6340 
 481   0.0000      16.919435       460.4012 
 482   0.0000      16.976947       461.9662 
 483   0.0000      16.977098       461.9703 
 484   0.0000      17.054834       464.0856 
 485   0.0000      17.054849       464.0860 
 486   0.0000      17.088232       464.9944 
 487   0.0000      17.111251       465.6208 
 488   0.0000      17.111266       465.6212 
 489   0.0000      17.113473       465.6813 
 490   0.0000      17.223668       468.6798 
 491   0.0000      17.223704       468.6808 
 492   0.0000      17.239930       469.1224 
 493   0.0000      17.294014       470.5940 
 494   0.0000      17.625229       479.6069 
 495   0.0000      17.716774       482.0979 
 496   0.0000      17.727419       482.3876 
 497   0.0000      17.727445       482.3883 
 498   0.0000      17.867368       486.1958 
 499   0.0000      17.867386       486.1963 
 500   0.0000      18.115890       492.9584 
 501   0.0000      18.115928       492.9595 
 502   0.0000      18.408213       500.9129 
 503   0.0000      18.588528       505.8196 
 504   0.0000      18.588531       505.8196 
 505   0.0000      18.740994       509.9684 
 506   0.0000      19.148887       521.0677 
 507   0.0000      19.148900       521.0680 
 508   0.0000      23.060113       627.4976 
 509   0.0000      23.060114       627.4976 
 510   0.0000      23.360218       635.6639 
 511   0.0000      23.360225       635.6641 
 512   0.0000      23.367969       635.8748 
 513   0.0000      23.405967       636.9088 
 514   0.0000      23.449352       638.0893 
 515   0.0000      23.449355       638.0894 
 516   0.0000      23.465782       638.5364 
 517   0.0000      23.465791       638.5366 
 518   0.0000      23.956028       651.8767 
 519   0.0000      24.141956       656.9360 
 520   0.0000      24.165531       657.5775 
 521   0.0000      24.165536       657.5777 
 522   0.0000      29.964752       815.3824 
 523   0.0000      30.496138       829.8421 
 524   0.0000      32.053182       872.2114 
 525   0.0000      32.053182       872.2114 
 526   0.0000      33.410614       909.1490 
 527   0.0000      40.021110      1089.0298 
 528   0.0000      40.021221      1089.0328 
 529   0.0000      40.028657      1089.2351 
 530   0.0000      59.147767      1609.4926 
 531   0.0000      59.147780      1609.4929 
 532   0.0000      59.783450      1626.7904 
 533   0.0000      59.882604      1629.4885 
 534   0.0000      59.882673      1629.4904 
 535   0.0000      66.635787      1813.2519 
 536   0.0000      66.635798      1813.2523 
 537   0.0000      66.866968      1819.5427 
 538   0.0000      66.866971      1819.5428 
 539   0.0000      67.466217      1835.8491 
 540   0.0000      90.963027      2475.2298 
 541   0.0000      90.996402      2476.1380 
 542   0.0000      90.996410      2476.1382 
 543   0.0000      91.002671      2476.3086 
 544   0.0000      91.027795      2476.9922 
 545   0.0000      91.027797      2476.9923 
 546   0.0000      91.519178      2490.3634 
 547   0.0000      91.519191      2490.3638 
 548   0.0000      91.550347      2491.2116 
 549   0.0000     142.982347      3890.7475 

                 SPIN DOWN ORBITALS
  NO   OCC          E(Eh)            E(eV) 
   0   1.0000     -76.349587     -2077.5779 
   1   1.0000     -18.718868      -509.3663 
   2   1.0000      -6.363786      -173.1674 
   3   1.0000      -4.579197      -124.6063 
   4   1.0000      -4.579197      -124.6063 
   5   1.0000      -4.577346      -124.5559 
   6   1.0000      -0.890585       -24.2341 
   7   1.0000      -0.595096       -16.1934 
   8   1.0000      -0.403334       -10.9753 
   9   1.0000      -0.403328       -10.9751 
  10   1.0000      -0.347569        -9.4578 
  11   1.0000      -0.254721        -6.9313 
  12   1.0000      -0.254721        -6.9313 
  13   0.0000      -0.047717        -1.2984 
  14   0.0000      -0.033487        -0.9112 
  15   0.0000       0.000045         0.0012 
  16   0.0000       0.000049         0.0013 
  17   0.0000       0.008440         0.2297 
  18   0.0000       0.008440         0.2297 
  19   0.0000       0.027703         0.7538 
  20   0.0000       0.028761         0.7826 
  21   0.0000       0.039894         1.0856 
  22   0.0000       0.039897         1.0857 
  23   0.0000       0.050798         1.3823 
  24   0.0000       0.057116         1.5542 
  25   0.0000       0.057117         1.5542 
  26   0.0000       0.064813         1.7636 
  27   0.0000       0.064813         1.7637 
  28   0.0000       0.088396         2.4054 
  29   0.0000       0.095951         2.6110 
  30   0.0000       0.095955         2.6111 
  31   0.0000       0.098188         2.6718 
  32   0.0000       0.113497         3.0884 
  33   0.0000       0.113508         3.0887 
  34   0.0000       0.113696         3.0938 
  35   0.0000       0.117389         3.1943 
  36   0.0000       0.122283         3.3275 
  37   0.0000       0.122927         3.3450 
  38   0.0000       0.122936         3.3453 
  39   0.0000       0.142015         3.8644 
  40   0.0000       0.142020         3.8645 
  41   0.0000       0.143426         3.9028 
  42   0.0000       0.162779         4.4294 
  43   0.0000       0.162787         4.4297 
  44   0.0000       0.182215         4.9583 
  45   0.0000       0.182215         4.9583 
  46   0.0000       0.182508         4.9663 
  47   0.0000       0.191652         5.2151 
  48   0.0000       0.210117         5.7176 
  49   0.0000       0.210849         5.7375 
  50   0.0000       0.210859         5.7378 
  51   0.0000       0.214198         5.8286 
  52   0.0000       0.214206         5.8288 
  53   0.0000       0.223893         6.0924 
  54   0.0000       0.224225         6.1015 
  55   0.0000       0.224230         6.1016 
  56   0.0000       0.237675         6.4675 
  57   0.0000       0.249044         6.7768 
  58   0.0000       0.250923         6.8280 
  59   0.0000       0.250944         6.8285 
  60   0.0000       0.265561         7.2263 
  61   0.0000       0.265619         7.2279 
  62   0.0000       0.265629         7.2281 
  63   0.0000       0.288255         7.8438 
  64   0.0000       0.288271         7.8442 
  65   0.0000       0.292809         7.9677 
  66   0.0000       0.292826         7.9682 
  67   0.0000       0.293455         7.9853 
  68   0.0000       0.297309         8.0902 
  69   0.0000       0.297833         8.1044 
  70   0.0000       0.302990         8.2448 
  71   0.0000       0.302999         8.2450 
  72   0.0000       0.314794         8.5660 
  73   0.0000       0.315282         8.5793 
  74   0.0000       0.315295         8.5796 
  75   0.0000       0.334749         9.1090 
  76   0.0000       0.334757         9.1092 
  77   0.0000       0.351208         9.5569 
  78   0.0000       0.351210         9.5569 
  79   0.0000       0.355625         9.6771 
  80   0.0000       0.377791        10.2802 
  81   0.0000       0.382226        10.4009 
  82   0.0000       0.382231        10.4010 
  83   0.0000       0.387109        10.5338 
  84   0.0000       0.421285        11.4637 
  85   0.0000       0.421691        11.4748 
  86   0.0000       0.421693        11.4749 
  87   0.0000       0.429877        11.6975 
  88   0.0000       0.433040        11.7836 
  89   0.0000       0.433044        11.7837 
  90   0.0000       0.440422        11.9845 
  91   0.0000       0.440444        11.9851 
  92   0.0000       0.440933        11.9984 
  93   0.0000       0.446941        12.1619 
  94   0.0000       0.454374        12.3642 
  95   0.0000       0.457786        12.4570 
  96   0.0000       0.457787        12.4570 
  97   0.0000       0.460082        12.5195 
  98   0.0000       0.460084        12.5195 
  99   0.0000       0.473586        12.8869 
 100   0.0000       0.484011        13.1706 
 101   0.0000       0.487659        13.2699 
 102   0.0000       0.487676        13.2703 
 103   0.0000       0.493130        13.4188 
 104   0.0000       0.493136        13.4189 
 105   0.0000       0.515482        14.0270 
 106   0.0000       0.515492        14.0273 
 107   0.0000       0.517488        14.0816 
 108   0.0000       0.519130        14.1262 
 109   0.0000       0.535654        14.5759 
 110   0.0000       0.535655        14.5759 
 111   0.0000       0.544624        14.8200 
 112   0.0000       0.561307        15.2740 
 113   0.0000       0.561331        15.2746 
 114   0.0000       0.571421        15.5492 
 115   0.0000       0.571471        15.5505 
 116   0.0000       0.572531        15.5794 
 117   0.0000       0.572551        15.5799 
 118   0.0000       0.580530        15.7970 
 119   0.0000       0.588270        16.0076 
 120   0.0000       0.597847        16.2682 
 121   0.0000       0.613115        16.6837 
 122   0.0000       0.613127        16.6840 
 123   0.0000       0.618277        16.8242 
 124   0.0000       0.618279        16.8242 
 125   0.0000       0.634141        17.2558 
 126   0.0000       0.638287        17.3687 
 127   0.0000       0.639515        17.4021 
 128   0.0000       0.639520        17.4022 
 129   0.0000       0.664745        18.0886 
 130   0.0000       0.664747        18.0887 
 131   0.0000       0.691520        18.8172 
 132   0.0000       0.691528        18.8174 
 133   0.0000       0.693167        18.8620 
 134   0.0000       0.693173        18.8622 
 135   0.0000       0.696565        18.9545 
 136   0.0000       0.702784        19.1237 
 137   0.0000       0.705543        19.1988 
 138   0.0000       0.732869        19.9424 
 139   0.0000       0.739333        20.1183 
 140   0.0000       0.739335        20.1183 
 141   0.0000       0.740556        20.1515 
 142   0.0000       0.746243        20.3063 
 143   0.0000       0.751597        20.4520 
 144   0.0000       0.751603        20.4522 
 145   0.0000       0.764882        20.8135 
 146   0.0000       0.764890        20.8137 
 147   0.0000       0.771876        21.0038 
 148   0.0000       0.789103        21.4726 
 149   0.0000       0.790363        21.5069 
 150   0.0000       0.790368        21.5070 
 151   0.0000       0.799690        21.7607 
 152   0.0000       0.813551        22.1379 
 153   0.0000       0.813552        22.1379 
 154   0.0000       0.820207        22.3190 
 155   0.0000       0.822798        22.3895 
 156   0.0000       0.822798        22.3895 
 157   0.0000       0.828731        22.5509 
 158   0.0000       0.836756        22.7693 
 159   0.0000       0.846824        23.0433 
 160   0.0000       0.846826        23.0433 
 161   0.0000       0.847766        23.0689 
 162   0.0000       0.847771        23.0690 
 163   0.0000       0.853437        23.2232 
 164   0.0000       0.864063        23.5124 
 165   0.0000       0.871879        23.7250 
 166   0.0000       0.872388        23.7389 
 167   0.0000       0.872401        23.7392 
 168   0.0000       0.902295        24.5527 
 169   0.0000       0.902307        24.5530 
 170   0.0000       0.908045        24.7092 
 171   0.0000       0.908050        24.7093 
 172   0.0000       0.919523        25.0215 
 173   0.0000       0.919540        25.0220 
 174   0.0000       0.922082        25.0911 
 175   0.0000       0.938516        25.5383 
 176   0.0000       0.938518        25.5384 
 177   0.0000       0.945723        25.7344 
 178   0.0000       0.958912        26.0933 
 179   0.0000       0.958916        26.0934 
 180   0.0000       0.963674        26.2229 
 181   0.0000       0.984853        26.7992 
 182   0.0000       0.997011        27.1301 
 183   0.0000       0.997025        27.1304 
 184   0.0000       1.016659        27.6647 
 185   0.0000       1.016672        27.6651 
 186   0.0000       1.023267        27.8445 
 187   0.0000       1.023272        27.8447 
 188   0.0000       1.055873        28.7318 
 189   0.0000       1.055898        28.7325 
 190   0.0000       1.068729        29.0816 
 191   0.0000       1.111772        30.2529 
 192   0.0000       1.140969        31.0474 
 193   0.0000       1.155971        31.4556 
 194   0.0000       1.155973        31.4556 
 195   0.0000       1.168504        31.7966 
 196   0.0000       1.175961        31.9995 
 197   0.0000       1.175972        31.9998 
 198   0.0000       1.194064        32.4921 
 199   0.0000       1.194072        32.4923 
 200   0.0000       1.203881        32.7593 
 201   0.0000       1.210756        32.9464 
 202   0.0000       1.210762        32.9465 
 203   0.0000       1.255794        34.1719 
 204   0.0000       1.255804        34.1722 
 205   0.0000       1.262989        34.3677 
 206   0.0000       1.274670        34.6855 
 207   0.0000       1.274671        34.6856 
 208   0.0000       1.297174        35.2979 
 209   0.0000       1.313382        35.7389 
 210   0.0000       1.313384        35.7390 
 211   0.0000       1.344731        36.5920 
 212   0.0000       1.418571        38.6013 
 213   0.0000       1.420694        38.6590 
 214   0.0000       1.420697        38.6591 
 215   0.0000       1.464602        39.8538 
 216   0.0000       1.497102        40.7382 
 217   0.0000       1.497105        40.7383 
 218   0.0000       1.521234        41.3949 
 219   0.0000       1.521242        41.3951 
 220   0.0000       1.532307        41.6962 
 221   0.0000       1.540847        41.9286 
 222   0.0000       1.540853        41.9287 
 223   0.0000       1.543895        42.0115 
 224   0.0000       1.600004        43.5383 
 225   0.0000       1.600006        43.5384 
 226   0.0000       1.629609        44.3439 
 227   0.0000       1.658320        45.1252 
 228   0.0000       1.658522        45.1307 
 229   0.0000       1.658525        45.1308 
 230   0.0000       1.664987        45.3066 
 231   0.0000       1.694162        46.1005 
 232   0.0000       1.708064        46.4788 
 233   0.0000       1.708068        46.4789 
 234   0.0000       1.720362        46.8134 
 235   0.0000       1.747303        47.5465 
 236   0.0000       1.747311        47.5467 
 237   0.0000       1.785368        48.5823 
 238   0.0000       1.786760        48.6202 
 239   0.0000       1.786767        48.6204 
 240   0.0000       1.853681        50.4412 
 241   0.0000       1.913363        52.0652 
 242   0.0000       1.913372        52.0655 
 243   0.0000       1.950044        53.0634 
 244   0.0000       2.006086        54.5884 
 245   0.0000       2.006087        54.5884 
 246   0.0000       2.026193        55.1355 
 247   0.0000       2.026200        55.1357 
 248   0.0000       2.052644        55.8553 
 249   0.0000       2.115413        57.5633 
 250   0.0000       2.123865        57.7933 
 251   0.0000       2.148515        58.4641 
 252   0.0000       2.148523        58.4643 
 253   0.0000       2.306909        62.7742 
 254   0.0000       2.306937        62.7750 
 255   0.0000       2.310352        62.8679 
 256   0.0000       2.379488        64.7492 
 257   0.0000       2.379494        64.7493 
 258   0.0000       2.469470        67.1977 
 259   0.0000       2.557206        69.5851 
 260   0.0000       2.557215        69.5853 
 261   0.0000       2.575846        70.0923 
 262   0.0000       2.575851        70.0925 
 263   0.0000       2.682394        72.9916 
 264   0.0000       2.682409        72.9921 
 265   0.0000       2.687793        73.1386 
 266   0.0000       2.728515        74.2467 
 267   0.0000       2.781499        75.6884 
 268   0.0000       2.843455        77.3744 
 269   0.0000       2.843461        77.3745 
 270   0.0000       2.919550        79.4450 
 271   0.0000       2.919561        79.4453 
 272   0.0000       2.964599        80.6708 
 273   0.0000       2.998571        81.5953 
 274   0.0000       2.998578        81.5955 
 275   0.0000       3.010706        81.9255 
 276   0.0000       3.064647        83.3933 
 277   0.0000       3.133529        85.2676 
 278   0.0000       3.133535        85.2678 
 279   0.0000       3.200496        87.0899 
 280   0.0000       3.201977        87.1302 
 281   0.0000       3.287551        89.4588 
 282   0.0000       3.287554        89.4589 
 283   0.0000       3.298447        89.7553 
 284   0.0000       3.374114        91.8143 
 285   0.0000       3.374116        91.8144 
 286   0.0000       3.448737        93.8449 
 287   0.0000       3.469708        94.4156 
 288   0.0000       3.469719        94.4158 
 289   0.0000       3.482887        94.7742 
 290   0.0000       3.482893        94.7743 
 291   0.0000       3.545866        96.4879 
 292   0.0000       3.545871        96.4881 
 293   0.0000       3.552223        96.6609 
 294   0.0000       3.568160        97.0946 
 295   0.0000       3.624737        98.6341 
 296   0.0000       3.639322        99.0310 
 297   0.0000       3.641000        99.0766 
 298   0.0000       3.641003        99.0767 
 299   0.0000       3.709387       100.9376 
 300   0.0000       3.722225       101.2869 
 301   0.0000       3.722270       101.2881 
 302   0.0000       3.800797       103.4249 
 303   0.0000       3.800806       103.4252 
 304   0.0000       3.803409       103.4960 
 305   0.0000       3.829187       104.1975 
 306   0.0000       3.829202       104.1979 
 307   0.0000       3.877208       105.5042 
 308   0.0000       3.973162       108.1152 
 309   0.0000       3.973165       108.1153 
 310   0.0000       4.018511       109.3493 
 311   0.0000       4.102339       111.6303 
 312   0.0000       4.102352       111.6307 
 313   0.0000       4.123818       112.2148 
 314   0.0000       4.123835       112.2152 
 315   0.0000       4.185733       113.8996 
 316   0.0000       4.255953       115.8104 
 317   0.0000       4.255963       115.8106 
 318   0.0000       4.289196       116.7149 
 319   0.0000       4.345492       118.2469 
 320   0.0000       4.345508       118.2473 
 321   0.0000       4.362035       118.6970 
 322   0.0000       4.455708       121.2460 
 323   0.0000       4.520765       123.0163 
 324   0.0000       4.520769       123.0164 
 325   0.0000       4.619966       125.7157 
 326   0.0000       4.619978       125.7160 
 327   0.0000       4.688886       127.5911 
 328   0.0000       4.829695       131.4227 
 329   0.0000       4.829702       131.4229 
 330   0.0000       4.938572       134.3854 
 331   0.0000       5.083709       138.3348 
 332   0.0000       5.099468       138.7636 
 333   0.0000       5.099482       138.7640 
 334   0.0000       5.123265       139.4111 
 335   0.0000       5.165560       140.5620 
 336   0.0000       5.186426       141.1298 
 337   0.0000       5.186449       141.1305 
 338   0.0000       5.282938       143.7560 
 339   0.0000       5.282994       143.7576 
 340   0.0000       5.382457       146.4641 
 341   0.0000       5.382470       146.4645 
 342   0.0000       5.398186       146.8921 
 343   0.0000       5.478874       149.0878 
 344   0.0000       5.572790       151.6433 
 345   0.0000       5.572800       151.6436 
 346   0.0000       5.600817       152.4060 
 347   0.0000       5.716649       155.5579 
 348   0.0000       5.716662       155.5583 
 349   0.0000       5.784054       157.3921 
 350   0.0000       5.784067       157.3925 
 351   0.0000       5.807717       158.0360 
 352   0.0000       5.944847       161.7675 
 353   0.0000       6.057366       164.8293 
 354   0.0000       6.057373       164.8295 
 355   0.0000       6.072173       165.2322 
 356   0.0000       6.118085       166.4816 
 357   0.0000       6.118124       166.4826 
 358   0.0000       6.208672       168.9465 
 359   0.0000       6.208679       168.9468 
 360   0.0000       6.404033       174.2626 
 361   0.0000       6.433928       175.0761 
 362   0.0000       6.619464       180.1248 
 363   0.0000       6.701424       182.3550 
 364   0.0000       6.701454       182.3558 
 365   0.0000       6.978515       189.8950 
 366   0.0000       6.978515       189.8951 
 367   0.0000       7.062721       192.1864 
 368   0.0000       7.159812       194.8284 
 369   0.0000       7.279015       198.0721 
 370   0.0000       7.279031       198.0725 
 371   0.0000       7.497739       204.0238 
 372   0.0000       7.497746       204.0241 
 373   0.0000       7.619315       207.3321 
 374   0.0000       7.619328       207.3325 
 375   0.0000       7.653431       208.2605 
 376   0.0000       7.902626       215.0414 
 377   0.0000       7.965866       216.7622 
 378   0.0000       7.965876       216.7625 
 379   0.0000       8.045201       218.9210 
 380   0.0000       8.045232       218.9219 
 381   0.0000       8.063875       219.4292 
 382   0.0000       8.469303       230.4615 
 383   0.0000       8.469311       230.4617 
 384   0.0000       8.502307       231.3595 
 385   0.0000       8.567689       233.1387 
 386   0.0000       8.626083       234.7277 
 387   0.0000       8.626089       234.7278 
 388   0.0000       8.809667       239.7232 
 389   0.0000       8.809690       239.7239 
 390   0.0000       8.898374       242.1371 
 391   0.0000       8.952045       243.5975 
 392   0.0000       8.952053       243.5977 
 393   0.0000       8.957119       243.7356 
 394   0.0000       9.017273       245.3725 
 395   0.0000       9.017277       245.3726 
 396   0.0000       9.056958       246.4524 
 397   0.0000       9.185005       249.9367 
 398   0.0000       9.213224       250.7046 
 399   0.0000       9.226383       251.0627 
 400   0.0000       9.226395       251.0630 
 401   0.0000       9.335916       254.0432 
 402   0.0000       9.335965       254.0445 
 403   0.0000       9.511453       258.8198 
 404   0.0000       9.511455       258.8199 
 405   0.0000       9.557840       260.0820 
 406   0.0000       9.681319       263.4421 
 407   0.0000       9.681328       263.4423 
 408   0.0000       9.773059       265.9385 
 409   0.0000       9.773099       265.9396 
 410   0.0000       9.834106       267.5996 
 411   0.0000       9.951082       270.7827 
 412   0.0000       9.951117       270.7837 
 413   0.0000      10.319365       280.8042 
 414   0.0000      10.991030       299.0811 
 415   0.0000      11.077226       301.4266 
 416   0.0000      11.077242       301.4271 
 417   0.0000      11.147717       303.3448 
 418   0.0000      11.188109       304.4439 
 419   0.0000      11.188141       304.4448 
 420   0.0000      11.273164       306.7584 
 421   0.0000      11.379884       309.6624 
 422   0.0000      11.484587       312.5115 
 423   0.0000      11.484630       312.5127 
 424   0.0000      11.718669       318.8812 
 425   0.0000      11.718671       318.8813 
 426   0.0000      11.970574       325.7359 
 427   0.0000      12.083901       328.8197 
 428   0.0000      12.083901       328.8197 
 429   0.0000      12.098300       329.2115 
 430   0.0000      12.098306       329.2117 
 431   0.0000      12.223271       332.6121 
 432   0.0000      12.243999       333.1762 
 433   0.0000      12.288137       334.3772 
 434   0.0000      12.324938       335.3786 
 435   0.0000      12.324944       335.3788 
 436   0.0000      12.342491       335.8563 
 437   0.0000      12.421506       338.0064 
 438   0.0000      12.421510       338.0065 
 439   0.0000      12.461071       339.0830 
 440   0.0000      12.493731       339.9717 
 441   0.0000      12.493733       339.9718 
 442   0.0000      12.551681       341.5486 
 443   0.0000      12.551684       341.5487 
 444   0.0000      12.621049       343.4362 
 445   0.0000      12.621058       343.4364 
 446   0.0000      12.636715       343.8625 
 447   0.0000      12.734162       346.5142 
 448   0.0000      12.786546       347.9396 
 449   0.0000      12.808316       348.5320 
 450   0.0000      12.822457       348.9168 
 451   0.0000      12.822458       348.9168 
 452   0.0000      12.980218       353.2097 
 453   0.0000      12.985228       353.3460 
 454   0.0000      12.998729       353.7134 
 455   0.0000      12.998736       353.7136 
 456   0.0000      13.185849       358.8052 
 457   0.0000      13.223364       359.8260 
 458   0.0000      13.223369       359.8262 
 459   0.0000      13.255516       360.7009 
 460   0.0000      13.255550       360.7019 
 461   0.0000      13.476632       366.7178 
 462   0.0000      13.476680       366.7191 
 463   0.0000      13.835884       376.4935 
 464   0.0000      13.918730       378.7479 
 465   0.0000      13.918742       378.7482 
 466   0.0000      14.689020       399.7086 
 467   0.0000      16.218533       441.3287 
 468   0.0000      16.218534       441.3287 
 469   0.0000      16.669636       453.6038 
 470   0.0000      16.691094       454.1878 
 471   0.0000      16.691104       454.1880 
 472   0.0000      16.694454       454.2792 
 473   0.0000      16.694471       454.2796 
 474   0.0000      16.694475       454.2798 
 475   0.0000      16.697415       454.3598 
 476   0.0000      16.732994       455.3279 
 477   0.0000      16.732995       455.3279 
 478   0.0000      16.801247       457.1852 
 479   0.0000      16.801254       457.1854 
 480   0.0000      16.817739       457.6340 
 481   0.0000      16.919435       460.4012 
 482   0.0000      16.976947       461.9662 
 483   0.0000      16.977098       461.9703 
 484   0.0000      17.054834       464.0856 
 485   0.0000      17.054849       464.0860 
 486   0.0000      17.088232       464.9944 
 487   0.0000      17.111251       465.6208 
 488   0.0000      17.111266       465.6212 
 489   0.0000      17.113473       465.6813 
 490   0.0000      17.223668       468.6798 
 491   0.0000      17.223704       468.6808 
 492   0.0000      17.239930       469.1224 
 493   0.0000      17.294014       470.5940 
 494   0.0000      17.625229       479.6069 
 495   0.0000      17.716774       482.0979 
 496   0.0000      17.727419       482.3876 
 497   0.0000      17.727445       482.3883 
 498   0.0000      17.867368       486.1958 
 499   0.0000      17.867386       486.1963 
 500   0.0000      18.115890       492.9584 
 501   0.0000      18.115928       492.9595 
 502   0.0000      18.408213       500.9129 
 503   0.0000      18.588528       505.8196 
 504   0.0000      18.588531       505.8196 
 505   0.0000      18.740994       509.9684 
 506   0.0000      19.148887       521.0677 
 507   0.0000      19.148900       521.0680 
 508   0.0000      23.060113       627.4976 
 509   0.0000      23.060114       627.4976 
 510   0.0000      23.360218       635.6639 
 511   0.0000      23.360225       635.6641 
 512   0.0000      23.367969       635.8748 
 513   0.0000      23.405967       636.9088 
 514   0.0000      23.449352       638.0893 
 515   0.0000      23.449355       638.0894 
 516   0.0000      23.465782       638.5364 
 517   0.0000      23.465791       638.5366 
 518   0.0000      23.956028       651.8767 
 519   0.0000      24.141956       656.9360 
 520   0.0000      24.165531       657.5775 
 521   0.0000      24.165536       657.5777 
 522   0.0000      29.964752       815.3824 
 523   0.0000      30.496138       829.8421 
 524   0.0000      32.053182       872.2114 
 525   0.0000      32.053182       872.2114 
 526   0.0000      33.410614       909.1490 
 527   0.0000      40.021110      1089.0298 
 528   0.0000      40.021221      1089.0328 
 529   0.0000      40.028657      1089.2351 
 530   0.0000      59.147767      1609.4926 
 531   0.0000      59.147780      1609.4929 
 532   0.0000      59.783450      1626.7904 
 533   0.0000      59.882604      1629.4885 
 534   0.0000      59.882673      1629.4904 
 535   0.0000      66.635787      1813.2519 
 536   0.0000      66.635798      1813.2523 
 537   0.0000      66.866968      1819.5427 
 538   0.0000      66.866971      1819.5428 
 539   0.0000      67.466217      1835.8491 
 540   0.0000      90.963027      2475.2298 
 541   0.0000      90.996402      2476.1380 
 542   0.0000      90.996410      2476.1382 
 543   0.0000      91.002671      2476.3086 
 544   0.0000      91.027795      2476.9922 
 545   0.0000      91.027797      2476.9923 
 546   0.0000      91.519178      2490.3634 
 547   0.0000      91.519191      2490.3638 
 548   0.0000      91.550347      2491.2116 
 549   0.0000     142.982347      3890.7475 

                    ********************************
                    * MULLIKEN POPULATION ANALYSIS *
                    ********************************

--------------------------------------------
MULLIKEN ATOMIC CHARGES AND SPIN POPULATIONS
--------------------------------------------
   0 P :    0.390555   -0.000000
   1 H :   -0.037959    0.000000
   2 H :   -0.038207    0.000000
   3 H :   -0.038157   -0.000000
   4 O :   -0.276231    0.000000
Sum of atomic charges         :   -0.0000000
Sum of atomic spin populations:    0.0000000

-----------------------------------------------------
MULLIKEN REDUCED ORBITAL CHARGES AND SPIN POPULATIONS
-----------------------------------------------------
CHARGE
  0 P s       :     5.300775  s :     5.300775
      pz      :     2.805993  p :     8.642889
      px      :     2.918452
      py      :     2.918444
      dz2     :     0.069864  d :     0.609050
      dxz     :     0.233240
      dyz     :     0.233232
      dx2y2   :     0.036359
      dxy     :     0.036355
      f0      :     0.011609  f :     0.045197
      f+1     :     0.013657
      f-1     :     0.013655
      f+2     :     0.002347
      f-2     :     0.002347
      f+3     :     0.001582
      f-3     :     0.000000
      g0      :     0.003722  g :     0.010079
      g+1     :     0.002932
      g-1     :     0.002933
      g+2     :     0.000024
      g-2     :     0.000024
      g+3     :     0.000403
      g-3     :    -0.000000
      g+4     :     0.000021
      g-4     :     0.000021
      h0      :     0.000346  h :     0.001454
      h+1     :     0.000523
      h-1     :     0.000523
      h+2     :    -0.000015
      h-2     :    -0.000015
      h+3     :     0.000009
      h-3     :     0.000000
      h+4     :     0.000056
      h-4     :     0.000056
      h+5     :    -0.000015
      h-5     :    -0.000015
  1 H s       :     1.048546  s :     1.048546
      pz      :     0.012976  p :     0.012131
      px      :     0.009069
      py      :    -0.009914
      dz2     :    -0.001405  d :    -0.017182
      dxz     :     0.001030
      dyz     :     0.001240
      dx2y2   :    -0.001019
      dxy     :    -0.017028
      f0      :     0.002599  f :    -0.005421
      f+1     :    -0.003113
      f-1     :     0.000468
      f+2     :     0.000711
      f-2     :    -0.000450
      f+3     :     0.000483
      f-3     :    -0.006119
      g0      :     0.000341  g :    -0.000115
      g+1     :     0.000081
      g-1     :     0.000184
      g+2     :    -0.000221
      g-2     :    -0.000005
      g+3     :     0.000160
      g-3     :    -0.000082
      g+4     :     0.000114
      g-4     :    -0.000686
  2 H s       :     1.048745  s :     1.048745
      pz      :     0.012977  p :     0.012171
      px      :    -0.005157
      py      :     0.004351
      dz2     :    -0.001402  d :    -0.017173
      dxz     :     0.001187
      dyz     :     0.001083
      dx2y2   :    -0.013026
      dxy     :    -0.005016
      f0      :     0.002599  f :    -0.005421
      f+1     :    -0.000427
      f-1     :    -0.002218
      f+2     :    -0.000160
      f-2     :     0.000421
      f+3     :     0.000483
      f-3     :    -0.006118
      g0      :     0.000341  g :    -0.000115
      g+1     :     0.000158
      g-1     :     0.000107
      g+2     :    -0.000059
      g-2     :    -0.000167
      g+3     :     0.000160
      g-3     :    -0.000083
      g+4     :    -0.000486
      g-4     :    -0.000086
  3 H s       :     1.048740  s :     1.048740
      pz      :     0.012978  p :     0.012140
      px      :    -0.005164
      py      :     0.004326
      dz2     :    -0.001404  d :    -0.017183
      dxz     :     0.001187
      dyz     :     0.001083
      dx2y2   :    -0.013029
      dxy     :    -0.005021
      f0      :     0.002599  f :    -0.005424
      f+1     :    -0.000428
      f-1     :    -0.002219
      f+2     :    -0.000160
      f-2     :     0.000421
      f+3     :     0.000482
      f-3     :    -0.006119
      g0      :     0.000341  g :    -0.000115
      g+1     :     0.000158
      g-1     :     0.000107
      g+2     :    -0.000059
      g-2     :    -0.000167
      g+3     :     0.000160
      g-3     :    -0.000083
      g+4     :    -0.000486
      g-4     :    -0.000086
  4 O s       :     3.777118  s :     3.777118
      pz      :     1.189645  p :     4.502069
      px      :     1.656216
      py      :     1.656207
      dz2     :     0.000440  d :     0.010400
      dxz     :     0.005475
      dyz     :     0.005469
      dx2y2   :    -0.000492
      dxy     :    -0.000492
      f0      :    -0.001390  f :    -0.010037
      f+1     :    -0.003068
      f-1     :    -0.003070
      f+2     :    -0.001252
      f-2     :    -0.001251
      f+3     :    -0.000006
      f-3     :     0.000000
      g0      :    -0.000193  g :    -0.003049
      g+1     :    -0.000823
      g-1     :    -0.000824
      g+2     :    -0.000581
      g-2     :    -0.000581
      g+3     :    -0.000038
      g-3     :     0.000000
      g+4     :    -0.000005
      g-4     :    -0.000005
      h0      :     0.000012  h :    -0.000270
      h+1     :    -0.000018
      h-1     :    -0.000018
      h+2     :    -0.000093
      h-2     :    -0.000093
      h+3     :    -0.000037
      h-3     :     0.000000
      h+4     :    -0.000012
      h-4     :    -0.000012
      h+5     :     0.000000
      h-5     :     0.000000

SPIN
  0 P s       :    -0.000000  s :    -0.000000
      pz      :    -0.000000  p :    -0.000000
      px      :    -0.000000
      py      :    -0.000000
      dz2     :    -0.000000  d :     0.000000
      dxz     :    -0.000000
      dyz     :     0.000000
      dx2y2   :    -0.000000
      dxy     :     0.000000
      f0      :     0.000000  f :     0.000000
      f+1     :    -0.000000
      f-1     :     0.000000
      f+2     :    -0.000000
      f-2     :     0.000000
      f+3     :     0.000000
      f-3     :    -0.000000
      g0      :    -0.000000  g :     0.000000
      g+1     :     0.000000
      g-1     :     0.000000
      g+2     :    -0.000000
      g-2     :     0.000000
      g+3     :    -0.000000
      g-3     :    -0.000000
      g+4     :     0.000000
      g-4     :    -0.000000
      h0      :     0.000000  h :     0.000000
      h+1     :    -0.000000
      h-1     :     0.000000
      h+2     :    -0.000000
      h-2     :    -0.000000
      h+3     :    -0.000000
      h-3     :    -0.000000
      h+4     :     0.000000
      h-4     :     0.000000
      h+5     :     0.000000
      h-5     :    -0.000000
  1 H s       :     0.000000  s :     0.000000
      pz      :     0.000000  p :     0.000000
      px      :     0.000000
      py      :     0.000000
      dz2     :     0.000000  d :     0.000000
      dxz     :    -0.000000
      dyz     :     0.000000
      dx2y2   :    -0.000000
      dxy     :     0.000000
      f0      :    -0.000000  f :     0.000000
      f+1     :     0.000000
      f-1     :    -0.000000
      f+2     :    -0.000000
      f-2     :     0.000000
      f+3     :    -0.000000
      f-3     :     0.000000
      g0      :    -0.000000  g :     0.000000
      g+1     :     0.000000
      g-1     :     0.000000
      g+2     :     0.000000
      g-2     :    -0.000000
      g+3     :    -0.000000
      g-3     :     0.000000
      g+4     :    -0.000000
      g-4     :     0.000000
  2 H s       :     0.000000  s :     0.000000
      pz      :     0.000000  p :     0.000000
      px      :    -0.000000
      py      :     0.000000
      dz2     :     0.000000  d :     0.000000
      dxz     :    -0.000000
      dyz     :     0.000000
      dx2y2   :     0.000000
      dxy     :    -0.000000
      f0      :    -0.000000  f :     0.000000
      f+1     :     0.000000
      f-1     :     0.000000
      f+2     :     0.000000
      f-2     :     0.000000
      f+3     :     0.000000
      f-3     :     0.000000
      g0      :     0.000000  g :     0.000000
      g+1     :     0.000000
      g-1     :     0.000000
      g+2     :     0.000000
      g-2     :     0.000000
      g+3     :     0.000000
      g-3     :     0.000000
      g+4     :    -0.000000
      g-4     :     0.000000
  3 H s       :    -0.000000  s :    -0.000000
      pz      :     0.000000  p :     0.000000
      px      :    -0.000000
      py      :    -0.000000
      dz2     :     0.000000  d :     0.000000
      dxz     :     0.000000
      dyz     :     0.000000
      dx2y2   :     0.000000
      dxy     :     0.000000
      f0      :    -0.000000  f :     0.000000
      f+1     :     0.000000
      f-1     :     0.000000
      f+2     :     0.000000
      f-2     :     0.000000
      f+3     :     0.000000
      f-3     :     0.000000
      g0      :     0.000000  g :     0.000000
      g+1     :    -0.000000
      g-1     :     0.000000
      g+2     :    -0.000000
      g-2     :     0.000000
      g+3     :     0.000000
      g-3     :     0.000000
      g+4     :     0.000000
      g-4     :     0.000000
  4 O s       :     0.000000  s :     0.000000
      pz      :    -0.000000  p :     0.000000
      px      :    -0.000000
      py      :     0.000000
      dz2     :     0.000000  d :     0.000000
      dxz     :    -0.000000
      dyz     :     0.000000
      dx2y2   :    -0.000000
      dxy     :    -0.000000
      f0      :     0.000000  f :     0.000000
      f+1     :    -0.000000
      f-1     :     0.000000
      f+2     :    -0.000000
      f-2     :    -0.000000
      f+3     :    -0.000000
      f-3     :    -0.000000
      g0      :     0.000000  g :     0.000000
      g+1     :    -0.000000
      g-1     :     0.000000
      g+2     :    -0.000000
      g-2     :    -0.000000
      g+3     :    -0.000000
      g-3     :    -0.000000
      g+4     :     0.000000
      g-4     :     0.000000
      h0      :     0.000000  h :     0.000000
      h+1     :     0.000000
      h-1     :     0.000000
      h+2     :    -0.000000
      h-2     :    -0.000000
      h+3     :    -0.000000
      h-3     :     0.000000
      h+4     :     0.000000
      h-4     :     0.000000
      h+5     :    -0.000000
      h-5     :     0.000000


                     *******************************
                     * LOEWDIN POPULATION ANALYSIS *
                     *******************************

-------------------------------------------
LOEWDIN ATOMIC CHARGES AND SPIN POPULATIONS
-------------------------------------------
   0 P :    1.679359   -0.000000
   1 H :   -0.526663    0.000000
   2 H :   -0.526618    0.000000
   3 H :   -0.526618    0.000000
   4 O :   -0.099461    0.000000

----------------------------------------------------
LOEWDIN REDUCED ORBITAL CHARGES AND SPIN POPULATIONS
----------------------------------------------------
CHARGE
  0 P s       :     4.386246  s :     4.386246
      pz      :     2.528726  p :     7.636491
      px      :     2.553883
      py      :     2.553882
      dz2     :     0.200161  d :     0.918577
      dxz     :     0.301110
      dyz     :     0.301106
      dx2y2   :     0.058099
      dxy     :     0.058101
      f0      :     0.087438  f :     0.262142
      f+1     :     0.067031
      f-1     :     0.067031
      f+2     :     0.016748
      f-2     :     0.016748
      f+3     :     0.007145
      f-3     :     0.000000
      g0      :     0.030036  g :     0.086914
      g+1     :     0.025879
      g-1     :     0.025878
      g+2     :     0.000460
      g-2     :     0.000460
      g+3     :     0.002395
      g-3     :     0.000000
      g+4     :     0.000903
      g-4     :     0.000903
      h0      :     0.010008  h :     0.030272
      h+1     :     0.009338
      h-1     :     0.009338
      h+2     :     0.000110
      h-2     :     0.000110
      h+3     :     0.000276
      h-3     :     0.000000
      h+4     :     0.000442
      h-4     :     0.000442
      h+5     :     0.000105
      h-5     :     0.000105
  1 H s       :     0.712656  s :     0.712656
      pz      :     0.057749  p :     0.261461
      px      :     0.144937
      py      :     0.058775
      dz2     :     0.045741  d :     0.238362
      dxz     :     0.052004
      dyz     :     0.017724
      dx2y2   :     0.047312
      dxy     :     0.075582
      f0      :     0.026947  f :     0.181026
      f+1     :     0.044692
      f-1     :     0.018720
      f+2     :     0.021852
      f-2     :     0.018185
      f+3     :     0.008529
      f-3     :     0.042101
      g0      :     0.020911  g :     0.133158
      g+1     :     0.027298
      g-1     :     0.004286
      g+2     :     0.019428
      g-2     :     0.025280
      g+3     :     0.008287
      g-3     :     0.008894
      g+4     :     0.001969
      g-4     :     0.016806
  2 H s       :     0.712645  s :     0.712645
      pz      :     0.057744  p :     0.261443
      px      :     0.080308
      py      :     0.123391
      dz2     :     0.045738  d :     0.238349
      dxz     :     0.026292
      dyz     :     0.043431
      dx2y2   :     0.068511
      dxy     :     0.054378
      f0      :     0.026945  f :     0.181020
      f+1     :     0.025212
      f-1     :     0.038198
      f+2     :     0.019101
      f-2     :     0.020934
      f+3     :     0.008528
      f-3     :     0.042102
      g0      :     0.020910  g :     0.133160
      g+1     :     0.010039
      g-1     :     0.021545
      g+2     :     0.023817
      g-2     :     0.020891
      g+3     :     0.008287
      g-3     :     0.008894
      g+4     :     0.013098
      g-4     :     0.005678
  3 H s       :     0.712645  s :     0.712645
      pz      :     0.057744  p :     0.261443
      px      :     0.080308
      py      :     0.123391
      dz2     :     0.045738  d :     0.238349
      dxz     :     0.026292
      dyz     :     0.043431
      dx2y2   :     0.068511
      dxy     :     0.054378
      f0      :     0.026945  f :     0.181020
      f+1     :     0.025212
      f-1     :     0.038198
      f+2     :     0.019101
      f-2     :     0.020934
      f+3     :     0.008528
      f-3     :     0.042102
      g0      :     0.020910  g :     0.133160
      g+1     :     0.010039
      g-1     :     0.021545
      g+2     :     0.023817
      g-2     :     0.020891
      g+3     :     0.008287
      g-3     :     0.008894
      g+4     :     0.013098
      g-4     :     0.005678
  4 O s       :     3.208940  s :     3.208940
      pz      :     1.468464  p :     4.228023
      px      :     1.379781
      py      :     1.379778
      dz2     :     0.110035  d :     0.287165
      dxz     :     0.086643
      dyz     :     0.086644
      dx2y2   :     0.001921
      dxy     :     0.001921
      f0      :     0.050913  f :     0.204978
      f+1     :     0.070882
      f-1     :     0.070882
      f+2     :     0.006097
      f-2     :     0.006098
      f+3     :     0.000105
      f-3     :     0.000000
      g0      :     0.010417  g :     0.113974
      g+1     :     0.041810
      g-1     :     0.041809
      g+2     :     0.009487
      g-2     :     0.009488
      g+3     :     0.000948
      g-3     :     0.000000
      g+4     :     0.000008
      g-4     :     0.000008
      h0      :     0.006158  h :     0.056382
      h+1     :     0.016438
      h-1     :     0.016437
      h+2     :     0.007852
      h-2     :     0.007853
      h+3     :     0.001374
      h-3     :     0.000000
      h+4     :     0.000122
      h-4     :     0.000122
      h+5     :     0.000013
      h-5     :     0.000013

SPIN
  0 P s       :    -0.000000  s :    -0.000000
      pz      :    -0.000000  p :    -0.000000
      px      :    -0.000000
      py      :    -0.000000
      dz2     :    -0.000000  d :    -0.000000
      dxz     :     0.000000
      dyz     :     0.000000
      dx2y2   :    -0.000000
      dxy     :    -0.000000
      f0      :     0.000000  f :     0.000000
      f+1     :    -0.000000
      f-1     :     0.000000
      f+2     :     0.000000
      f-2     :     0.000000
      f+3     :    -0.000000
      f-3     :     0.000000
      g0      :    -0.000000  g :     0.000000
      g+1     :     0.000000
      g-1     :     0.000000
      g+2     :    -0.000000
      g-2     :    -0.000000
      g+3     :    -0.000000
      g-3     :    -0.000000
      g+4     :    -0.000000
      g-4     :    -0.000000
      h0      :     0.000000  h :     0.000000
      h+1     :     0.000000
      h-1     :    -0.000000
      h+2     :    -0.000000
      h-2     :    -0.000000
      h+3     :    -0.000000
      h-3     :    -0.000000
      h+4     :     0.000000
      h-4     :     0.000000
      h+5     :     0.000000
      h-5     :    -0.000000
  1 H s       :     0.000000  s :     0.000000
      pz      :     0.000000  p :    -0.000000
      px      :    -0.000000
      py      :     0.000000
      dz2     :     0.000000  d :    -0.000000
      dxz     :    -0.000000
      dyz     :    -0.000000
      dx2y2   :    -0.000000
      dxy     :     0.000000
      f0      :    -0.000000  f :     0.000000
      f+1     :     0.000000
      f-1     :     0.000000
      f+2     :    -0.000000
      f-2     :    -0.000000
      f+3     :    -0.000000
      f-3     :     0.000000
      g0      :     0.000000  g :    -0.000000
      g+1     :     0.000000
      g-1     :     0.000000
      g+2     :    -0.000000
      g-2     :    -0.000000
      g+3     :     0.000000
      g-3     :     0.000000
      g+4     :    -0.000000
      g-4     :    -0.000000
  2 H s       :     0.000000  s :     0.000000
      pz      :    -0.000000  p :    -0.000000
      px      :    -0.000000
      py      :     0.000000
      dz2     :     0.000000  d :    -0.000000
      dxz     :    -0.000000
      dyz     :    -0.000000
      dx2y2   :    -0.000000
      dxy     :    -0.000000
      f0      :    -0.000000  f :     0.000000
      f+1     :    -0.000000
      f-1     :     0.000000
      f+2     :    -0.000000
      f-2     :     0.000000
      f+3     :     0.000000
      f-3     :     0.000000
      g0      :     0.000000  g :    -0.000000
      g+1     :     0.000000
      g-1     :     0.000000
      g+2     :    -0.000000
      g-2     :    -0.000000
      g+3     :     0.000000
      g-3     :     0.000000
      g+4     :    -0.000000
      g-4     :     0.000000
  3 H s       :    -0.000000  s :    -0.000000
      pz      :     0.000000  p :     0.000000
      px      :     0.000000
      py      :     0.000000
      dz2     :    -0.000000  d :     0.000000
      dxz     :     0.000000
      dyz     :     0.000000
      dx2y2   :     0.000000
      dxy     :     0.000000
      f0      :    -0.000000  f :    -0.000000
      f+1     :     0.000000
      f-1     :     0.000000
      f+2     :     0.000000
      f-2     :    -0.000000
      f+3     :    -0.000000
      f-3     :    -0.000000
      g0      :    -0.000000  g :    -0.000000
      g+1     :     0.000000
      g-1     :     0.000000
      g+2     :    -0.000000
      g-2     :    -0.000000
      g+3     :    -0.000000
      g-3     :     0.000000
      g+4     :    -0.000000
      g-4     :    -0.000000
  4 O s       :     0.000000  s :     0.000000
      pz      :    -0.000000  p :     0.000000
      px      :     0.000000
      py      :     0.000000
      dz2     :     0.000000  d :    -0.000000
      dxz     :    -0.000000
      dyz     :    -0.000000
      dx2y2   :    -0.000000
      dxy     :    -0.000000
      f0      :     0.000000  f :     0.000000
      f+1     :    -0.000000
      f-1     :     0.000000
      f+2     :     0.000000
      f-2     :     0.000000
      f+3     :    -0.000000
      f-3     :    -0.000000
      g0      :     0.000000  g :     0.000000
      g+1     :     0.000000
      g-1     :    -0.000000
      g+2     :     0.000000
      g-2     :     0.000000
      g+3     :     0.000000
      g-3     :     0.000000
      g+4     :    -0.000000
      g-4     :     0.000000
      h0      :     0.000000  h :     0.000000
      h+1     :     0.000000
      h-1     :     0.000000
      h+2     :    -0.000000
      h-2     :    -0.000000
      h+3     :    -0.000000
      h-3     :     0.000000
      h+4     :     0.000000
      h-4     :     0.000000
      h+5     :    -0.000000
      h-5     :    -0.000000


                      *****************************
                      * MAYER POPULATION ANALYSIS *
                      *****************************

  NA   - Mulliken gross atomic population
  ZA   - Total nuclear charge
  QA   - Mulliken gross atomic charge
  VA   - Mayer's total valence
  BVA  - Mayer's bonded valence
  FA   - Mayer's free valence

  ATOM       NA         ZA         QA         VA         BVA        FA
  0 P     14.6094    15.0000     0.3906     4.7754     4.7754    -0.0000
  1 H      1.0380     1.0000    -0.0380     0.9172     0.9172    -0.0000
  2 H      1.0382     1.0000    -0.0382     0.9174     0.9174    -0.0000
  3 H      1.0382     1.0000    -0.0382     0.9172     0.9172    -0.0000
  4 O      8.2762     8.0000    -0.2762     1.9706     1.9706     0.0000

  Mayer bond orders larger than 0.1
B(  0-P ,  1-H ) :   0.9665 B(  0-P ,  2-H ) :   0.9668 B(  0-P ,  3-H ) :   0.9667 
B(  0-P ,  4-O ) :   1.8754 

-------
TIMINGS
-------

Total SCF time: 0 days 1 hours 9 min 13 sec 

Total time                  ....    4153.417 sec
Sum of individual times     ....    4151.330 sec  ( 99.9%)

Fock matrix formation       ....    4134.996 sec  ( 99.6%)
  XC integration            ....     118.932 sec  (  2.9% of F)
    Basis function eval.    ....       9.653 sec  (  8.1% of XC)
    Density eval.           ....      39.539 sec  ( 33.2% of XC)
    XC-Functional eval.     ....       0.781 sec  (  0.7% of XC)
    XC-Potential eval.      ....      67.251 sec  ( 56.5% of XC)
Diagonalization             ....       4.617 sec  (  0.1%)
Density matrix formation    ....       0.099 sec  (  0.0%)
Population analysis         ....       0.409 sec  (  0.0%)
Initial guess               ....       4.565 sec  (  0.1%)
Orbital Transformation      ....       0.000 sec  (  0.0%)
Orbital Orthonormalization  ....       0.000 sec  (  0.0%)
DIIS solution               ....       3.058 sec  (  0.1%)
Grid generation             ....       3.586 sec  (  0.1%)

-------------------------   --------------------
FINAL SINGLE POINT ENERGY      -418.203263735625
-------------------------   --------------------


                            ***************************************
                            *     ORCA property calculations      *
                            ***************************************

                                    ---------------------
                                    Active property flags
                                    ---------------------
   (+) Dipole Moment
   (+) Polarizability


------------------------------------------------------------------------------
                       ORCA ELECTRIC PROPERTIES CALCULATION
------------------------------------------------------------------------------

Dipole Moment Calculation                       ... on
Quadrupole Moment Calculation                   ... off
Polarizability Calculation                      ... Analytic (CP-SCF)
GBWName                                         ... ph3o_pbe.gbw
Electron density file                           ... ph3o_pbe.scfp.tmp
The origin for moment calculation is the CENTER OF MASS  = ( 0.000002,  0.000000  0.101290)

-------------
DIPOLE MOMENT
-------------
                                X             Y             Z
Electronic contribution:     -0.00008       0.00000       1.26596
Nuclear contribution   :      0.00006      -0.00000      -2.63355
                        -----------------------------------------
Total Dipole Moment    :     -0.00002       0.00000      -1.36759
                        -----------------------------------------
Magnitude (a.u.)       :      1.36759
Magnitude (Debye)      :      3.47613



--------------------
Rotational spectrum 
--------------------
 
Rotational constants in cm-1:     3.555542     0.571885     0.571884 
Rotational constants in MHz : 106592.463124 17144.691861 17144.639736 

 Dipole components along the rotational axes: 
x,y,z [a.u.] :    -1.367586    -0.000000    -0.000027 
x,y,z [Debye]:    -3.476128    -0.000000    -0.000069 

 
Transforming and storing MO dipole integrals   ... done

                ... starting polarizability calculation

Opening the Dipole integral file               ... (ph3o_pbe.dmo.tmp) done
Reading Dipole-MO integrals                    ... done
Solving CP-SCF equations                       ... 

           ************************************************************
           *        Program running with 4 parallel MPI-processes     *
           *              working on a common directory               *
           ************************************************************

------------------------------------------------------------------------------
                           ORCA CP-SCF CALCULATION
------------------------------------------------------------------------------

Input orbitals are from        ... ph3o_pbe.gbw
Input Perturbation             ... ph3o_pbe.cpv.tmp
Wavefunction output            ... ph3o_pbe.cpu.tmp
Perturbation mode              ... Real perturbation (singlet)
Solver                         ... POPLE
Max. number of iterations      ... 200
Convergence tolerance          ... 1.000e-06
Integral handling              ... Direct
Number of perturbations        ... 3
Number of operators            ... 2
Orbital ranges used for CP-SCF:
 Operator 0:  Orbitals   0... 12  to  13...549
 Operator 1:  Orbitals   0... 12  to  13...549
DFT calculation                         ... on
Exchange functional (SCF)               ... PBE
Exchange functional (CP-SCF)            ... PBE
   PBE kappa parameter  XKappa (SCF)    ...  0.804000
   PBE kappa parameter  XKappa (CP-SCF) ...  0.804000
   PBE mue parameter   XMuePBE (SCF)    ...  0.219520
   PBE mue parameter   XMuePBE (CP-SCF) ...  0.219520
Correlation functional (SCF)            ... PBE
Correlation functional (CP-SCF)         ... PBE
   PBE beta parameter CBetaPBE (SCF)    ...  0.066725
   PBE beta parameter CBetaPBE (CP-SCF) ...  0.066725
 LDA part of GGA corr.  LDAOpt (SCF)    ... PW91-LDA
 LDA part of GGA corr.  LDAOpt (CP-SCF) ... PW91-LDA
Variables per vector in CP-SCF ... 13962
Number of vectors sought       ... 3
Recalculating density on grid  ... done
Calculating the xc-kernel      ... done
     CP-SCF ITERATION   0: 
     CP-SCF ITERATION   1:      0.470574793244
     CP-SCF ITERATION   2:      0.015593910389
     CP-SCF ITERATION   3:      0.000758017309
     CP-SCF ITERATION   4:      0.000021108581
     CP-SCF ITERATION   5:      0.000000201702
done
Reading CP-SCF coefficients                    ... done
Doing the polarizability tensor   ... done
Cleaning up                                    ... done

-------------------------
THE POLARIZABILITY TENSOR
-------------------------

The raw cartesian tensor (atomic units):
   29.43978      0.00000     -0.00040  
    0.00000     29.44060      0.00000  
   -0.00040      0.00000     35.47268  
diagonalized tensor: 
   29.43978     29.44060     35.47268  

   -1.00000      0.00007     -0.00007  
    0.00007      1.00000      0.00000  
   -0.00007     -0.00000      1.00000  

Isotropic polarizability :  31.45102


Timings for individual modules:

Sum of individual times         ...     7009.201 sec (= 116.820 min)
GTO integral calculation        ...       17.371 sec (=   0.290 min)   0.2 %
SCF iterations                  ...     4159.875 sec (=  69.331 min)  59.3 %
Solution of CP-SCF eqns.        ...     2831.955 sec (=  47.199 min)  40.4 %
                             ****ORCA TERMINATED NORMALLY****
TOTAL RUN TIME: 0 days 1 hours 56 minutes 55 seconds 213 msec
