
                                 *****************
                                 * O   R   C   A *
                                 *****************

           --- An Ab Initio, DFT and Semiempirical electronic structure package ---

                  #######################################################
                  #                        -***-                        #
                  #          Department of theory and spectroscopy      #
                  #               Directorship: Frank Neese             #
                  #        Max Planck Institute fuer Kohlenforschung    #
                  #                Kaiser Wilhelm Platz 1               #
                  #                 D-45470 Muelheim/Ruhr               #
                  #                      Germany                        #
                  #                                                     #
                  #                  All rights reserved                #
                  #                        -***-                        #
                  #######################################################


                         Program Version 4.1.2  - RELEASE  -


 With contributions from (in alphabetic order):
   Daniel Aravena         : Magnetic Properties
   Michael Atanasov       : Ab Initio Ligand Field Theory
   Alexander A. Auer      : GIAO ZORA
   Ute Becker             : Parallelization
   Giovanni Bistoni       : ED, Open-shell LED
   Martin Brehm           : Molecular dynamics
   Dmytro Bykov           : SCF Hessian
   Vijay G. Chilkuri      : MRCI spin determinant printing
   Dipayan Datta          : RHF DLPNO-CCSD density
   Achintya Kumar Dutta   : EOM-CC, STEOM-CC
   Dmitry Ganyushin       : Spin-Orbit,Spin-Spin,Magnetic field MRCI
   Miquel Garcia          : C-PCM Hessian
   Yang Guo               : DLPNO-NEVPT2, CIM, IAO-localization
   Andreas Hansen         : Spin unrestricted coupled pair/coupled cluster methods
   Benjamin Helmich-Paris : CASSCF linear response (MC-RPA)
   Lee Huntington         : MR-EOM, pCC
   Robert Izsak           : Overlap fitted RIJCOSX, COSX-SCS-MP3, EOM
   Christian Kollmar      : KDIIS, OOCD, Brueckner-CCSD(T), CCSD density
   Simone Kossmann        : Meta GGA functionals, TD-DFT gradient, OOMP2, MP2 Hessian
   Martin Krupicka        : AUTO-CI
   Lucas Lang             : DCDCAS
   Dagmar Lenk            : GEPOL surface, SMD
   Dimitrios Liakos       : Extrapolation schemes; parallel MDCI
   Dimitrios Manganas     : ROCIS; embedding schemes
   Dimitrios Pantazis     : SARC Basis sets
   Taras Petrenko         : DFT Hessian,TD-DFT gradient, ASA, ECA, R-Raman, ABS, FL, XAS/XES, NRVS
   Peter Pinski           : DLPNO-MP2, DLPNO-MP2 Gradient
   Christoph Reimann      : Effective Core Potentials
   Marius Retegan         : Local ZFS, SOC
   Christoph Riplinger    : Optimizer, TS searches, QM/MM, DLPNO-CCSD(T), (RO)-DLPNO pert. Triples
   Tobias Risthaus        : Range-separated hybrids, TD-DFT gradient, RPA, STAB
   Michael Roemelt        : Restricted open shell CIS
   Masaaki Saitow         : Open-shell DLPNO
   Barbara Sandhoefer     : DKH picture change effects
   Avijit Sen             : IP-ROCIS
   Kantharuban Sivalingam : CASSCF convergence, NEVPT2, FIC-MRCI
   Bernardo de Souza      : ESD, SOC TD-DFT
   Georgi Stoychev        : AutoAux, RI-MP2 NMR
   Willem Van den Heuvel  : Paramagnetic NMR
   Boris Wezisla          : Elementary symmetry handling
   Frank Wennmohs         : Technical directorship


 We gratefully acknowledge several colleagues who have allowed us to
 interface, adapt or use parts of their codes:
   Stefan Grimme, W. Hujo, H. Kruse,             : VdW corrections, initial TS optimization,
                  C. Bannwarth                     DFT functionals, gCP, sTDA/sTD-DF
   Ed Valeev                                     : LibInt (2-el integral package), F12 methods
   Garnet Chan, S. Sharma, J. Yang, R. Olivares  : DMRG
   Ulf Ekstrom                                   : XCFun DFT Library
   Mihaly Kallay                                 : mrcc  (arbitrary order and MRCC methods)
   Andreas Klamt, Michael Diedenhofen            : otool_cosmo (COSMO solvation model)
   Jiri Pittner, Ondrej Demel                    : Mk-CCSD
   Frank Weinhold                                : gennbo (NPA and NBO analysis)
   Christopher J. Cramer and Donald G. Truhlar   : smd solvation model
   Lars Goerigk                                  : TD-DFT with DH, B97 family of functionals
   V. Asgeirsson, H. Jonsson                     : NEB implementation
   FAccTs GmbH                                   : IRC, NEB, NEB-TS, Multilevel


 Your calculation uses the libint2 library for the computation of 2-el integrals
 For citations please refer to: http://libint.valeyev.net

 This ORCA versions uses:
   CBLAS   interface :  Fast vector & matrix operations
   LAPACKE interface :  Fast linear algebra routines
   SCALAPACK package :  Parallel linear algebra routines


----- Orbital basis set information -----
Your calculation utilizes the basis: aug-pc-4
   H, C-F              : F. Jensen, J. Chem. Phys. 115, 9113 (2001).
                         F. Jensen, J. Chem. Phys. 116, 7372 (2002).
                         F. Jensen, J. Chem. Phys. 117, 9234 (2002).
   Si-Cl               : F. Jensen, T. Helgaker, J. Chem. Phys. 121, 3463 (2004).
   He-B, Ne-Mg, Al, Ar : F. Jensen, J. Phys. Chem. A 111, 11198 (2007).
   K, Ca, Ga-Kr        : F. Jensen, J. Chem. Phys. 136, 094110 (2012).
   Sc-Zn               : F. Jensen, J. Chem. Phys. 138, 014107 (2013).

================================================================================
                                        WARNINGS
                       Please study these warnings very carefully!
================================================================================


INFO   : the flag for use of LIBINT has been found!

================================================================================
                                       INPUT FILE
================================================================================
NAME = ps_pbe.inp
|  1> !uks pbe nori aug-pc-4 grid7 nofinalgrid verytightscf
|  2> 
|  3> %maxcore 1500
|  4> 
|  5> %pal nprocs 1 end
|  6> 
|  7> %scf
|  8> 	maxiter 200
|  9> end
| 10> %elprop
| 11> 	dipole true
| 12> 	 polar 1
| 13> 	 maxiter 200
| 14> end
| 15> 
| 16> * xyz 0 2
| 17> S 0.0000 0.0000 0.0000
| 18> P 0.0000 0.0000 1.9000
| 19> *
| 20> 
| 21>                          ****END OF INPUT****
================================================================================

                       ****************************
                       * Single Point Calculation *
                       ****************************

---------------------------------
CARTESIAN COORDINATES (ANGSTROEM)
---------------------------------
  S      0.000000    0.000000    0.000000
  P      0.000000    0.000000    1.900000

----------------------------
CARTESIAN COORDINATES (A.U.)
----------------------------
  NO LB      ZA    FRAG     MASS         X           Y           Z
   0 S    16.0000    0    32.060    0.000000    0.000000    0.000000
   1 P    15.0000    0    30.974    0.000000    0.000000    3.590480

--------------------------------
INTERNAL COORDINATES (ANGSTROEM)
--------------------------------
 S      0   0   0     0.000000000000     0.00000000     0.00000000
 P      1   0   0     1.900000000000     0.00000000     0.00000000

---------------------------
INTERNAL COORDINATES (A.U.)
---------------------------
 S      0   0   0     0.000000000000     0.00000000     0.00000000
 P      1   0   0     3.590479654450     0.00000000     0.00000000

---------------------
BASIS SET INFORMATION
---------------------
There are 2 groups of distinct atoms

 Group   1 Type S   : 44s27p7d4f3g2h contracted to 8s7p7d4f3g2h pattern {15121211111/111111111/1111111/1111/111/11}
 Group   2 Type P   : 44s27p7d4f3g2h contracted to 8s7p7d4f3g2h pattern {15121211111/111111111/1111111/1111/111/11}

Atom   0S    basis set group =>   1
Atom   1P    basis set group =>   2
------------------------------------------------------------------------------
                           ORCA GTO INTEGRAL CALCULATION
------------------------------------------------------------------------------

                         BASIS SET STATISTICS AND STARTUP INFO

 # of primitive gaussian shells          ...  174
 # of primitive gaussian functions       ...  474
 # of contracted shells                  ...   62
 # of contracted basis functions         ...  282
 Highest angular momentum                ...    5
 Maximum contraction depth               ...   15
 Integral package used                   ... LIBINT
 Integral threshhold            Thresh   ...  1.000e-12
 Primitive cut-off              TCut     ...  1.000e-14


------------------------------ INTEGRAL EVALUATION ----------------------------


 * One electron integrals 
 Pre-screening matrix                    ... done
 Shell pair data                         ... done (   0.001 sec)

-------------------------------------------------------------------------------
                                 ORCA SCF
-------------------------------------------------------------------------------

------------
SCF SETTINGS
------------
Hamiltonian:
 Density Functional     Method          .... DFT(GTOs)
 Exchange Functional    Exchange        .... PBE
   PBE kappa parameter   XKappa         ....  0.804000
   PBE mue parameter    XMuePBE         ....  0.219520
 Correlation Functional Correlation     .... PBE
   PBE beta parameter  CBetaPBE         ....  0.066725
 LDA part of GGA corr.  LDAOpt          .... PW91-LDA
 Gradients option       PostSCFGGA      .... off
   Density functional embedding theory  .... OFF
   NL short-range parameter             ....  6.400000


General Settings:
 Integral files         IntName         .... ps_pbe
 Hartree-Fock type      HFTyp           .... UHF
 Total Charge           Charge          ....    0
 Multiplicity           Mult            ....    2
 Number of Electrons    NEL             ....   31
 Basis Dimension        Dim             ....  282
 Nuclear Repulsion      ENuc            ....     66.8434368379 Eh

Convergence Acceleration:
 DIIS                   CNVDIIS         .... on
   Start iteration      DIISMaxIt       ....    12
   Startup error        DIISStart       ....  0.200000
   # of expansion vecs  DIISMaxEq       ....     5
   Bias factor          DIISBfac        ....   1.050
   Max. coefficient     DIISMaxC        ....  10.000
 Newton-Raphson         CNVNR           .... off
 SOSCF                  CNVSOSCF        .... off
 Level Shifting         CNVShift        .... on
   Level shift para.    LevelShift      ....    0.2500
   Turn off err/grad.   ShiftErr        ....    0.0010
 Zerner damping         CNVZerner       .... off
 Static damping         CNVDamp         .... on
   Fraction old density DampFac         ....    0.7000
   Max. Damping (<1)    DampMax         ....    0.9800
   Min. Damping (>=0)   DampMin         ....    0.0000
   Turn off err/grad.   DampErr         ....    0.1000
 Fernandez-Rico         CNVRico         .... off

SCF Procedure:
 Maximum # iterations   MaxIter         ....   200
 SCF integral mode      SCFMode         .... Direct
   Integral package                     .... LIBINT
 Reset frequency        DirectResetFreq ....    20
 Integral Threshold     Thresh          ....  1.000e-12 Eh
 Primitive CutOff       TCut            ....  1.000e-14 Eh

Convergence Tolerance:
 Convergence Check Mode ConvCheckMode   .... Total+1el-Energy
 Convergence forced     ConvForced      .... 0
 Energy Change          TolE            ....  1.000e-09 Eh
 1-El. energy change                    ....  1.000e-06 Eh
 DIIS Error             TolErr          ....  1.000e-08


Diagonalization of the overlap matrix:
Smallest eigenvalue                        ... 7.364e-06
Time for diagonalization                   ...    0.030 sec
Threshold for overlap eigenvalues          ... 1.000e-08
Number of eigenvalues below threshold      ... 0
Time for construction of square roots      ...    0.011 sec
Total time needed                          ...    0.041 sec

-------------------
DFT GRID GENERATION
-------------------

General Integration Accuracy     IntAcc      ...  5.670
Radial Grid Type                 RadialGrid  ... Gauss-Chebyshev
Angular Grid (max. acc.)         AngularGrid ... Lebedev-770
Angular grid pruning method      GridPruning ... 3 (G Style)
Weight generation scheme         WeightScheme... Becke
Basis function cutoff            BFCut       ...    1.0000e-12
Integration weight cutoff        WCut        ...    1.0000e-14
Grids for H and He will be reduced by one unit

# of grid points (after initial pruning)     ...  54384 (   0.0 sec)
# of grid points (after weights+screening)   ...  54227 (   0.0 sec)
nearest neighbour list constructed           ...    0.0 sec
Grid point re-assignment to atoms done       ...    0.0 sec
Grid point division into batches done        ...    1.4 sec
Reduced shell lists constructed in    2.0 sec

Total number of grid points                  ...    54227
Total number of batches                      ...      848
Average number of points per batch           ...       63
Average number of grid points per atom       ...    27114
Average number of shells per batch           ...    47.37 (76.41%)
Average number of basis functions per batch  ...   219.45 (77.82%)
Average number of large shells per batch     ...    42.67 (90.07%)
Average number of large basis fcns per batch ...   198.36 (90.39%)
Maximum spatial batch extension              ...  32.91, 32.91, 24.52 au
Average spatial batch extension              ...   2.85,  2.83,  2.59 au

Time for grid setup =    2.055 sec

------------------------------
INITIAL GUESS: MODEL POTENTIAL
------------------------------
Loading Hartree-Fock densities                     ... done
Calculating cut-offs                               ... done
Setting up the integral package                    ... done
Initializing the effective Hamiltonian             ... done
Starting the Coulomb interaction                   ... done (   0.1 sec)
Reading the grid                                   ... done
Mapping shells                                     ... done
Starting the XC term evaluation                    ... done (   2.3 sec)
  promolecular density results
     # of electrons  =     31.000000573
     EX              =    -47.358193861
     EC              =     -1.175982905
     EX+EC           =    -48.534176766
Transforming the Hamiltonian                       ... done (   0.0 sec)
Diagonalizing the Hamiltonian                      ... done (   0.0 sec)
Back transforming the eigenvectors                 ... done (   0.0 sec)
Now organizing SCF variables                       ... done
                      ------------------
                      INITIAL GUESS DONE (   4.6 sec)
                      ------------------
--------------
SCF ITERATIONS
--------------
ITER       Energy         Delta-E        Max-DP      RMS-DP      [F,P]     Damp
               ***  Starting incremental Fock matrix formation  ***
  0   -739.2269257929   0.000000000000 0.01922406  0.00019424  0.0778873 0.7000
  1   -739.2381323966  -0.011206603618 0.00996689  0.00013357  0.0329874 0.7000
                               ***Turning on DIIS***
  2   -739.2410639476  -0.002931551017 0.02026080  0.00025653  0.0183873 0.0000
  3   -739.2454883032  -0.004424355671 0.00824140  0.00010020  0.0308066 0.0000
  4   -739.2475644872  -0.002076183948 0.00626550  0.00006171  0.0134890 0.0000
  5   -739.2480409963  -0.000476509070 0.00184694  0.00001650  0.0032774 0.0000
  6   -739.2480772007  -0.000036204415 0.00080020  0.00000874  0.0014015 0.0000
  7   -739.2480858560  -0.000008655323 0.00055063  0.00000614  0.0004657 0.0000
  8   -739.2480890208  -0.000003164806 0.00016986  0.00000225  0.0001736 0.0000
  9   -739.2480893177  -0.000000296851 0.00005565  0.00000065  0.0001489 0.0000
 10   -739.2480893900  -0.000000072338 0.00004905  0.00000057  0.0000622 0.0000
 11   -739.2480894269  -0.000000036942 0.00002258  0.00000032  0.0000069 0.0000
 12   -739.2480894371  -0.000000010215 0.00001409  0.00000020  0.0000020 0.0000
 13   -739.2480894402  -0.000000003056 0.00000952  0.00000014  0.0000009 0.0000
 14   -739.2480894410  -0.000000000757 0.00000845  0.00000008  0.0000003 0.0000
 15   -739.2480894410  -0.000000000050 0.00000672  0.00000006  0.0000004 0.0000
 16   -739.2480894410  -0.000000000003 0.00000236  0.00000002  0.0000001 0.0000
                 **** Energy Check signals convergence ****

               *****************************************************
               *                     SUCCESS                       *
               *           SCF CONVERGED AFTER  17 CYCLES          *
               *****************************************************


----------------
TOTAL SCF ENERGY
----------------

Total Energy       :         -739.24808944 Eh          -20115.96319 eV

Components:
Nuclear Repulsion  :           66.84343684 Eh            1818.90239 eV
Electronic Energy  :         -806.09152628 Eh          -21934.86558 eV
One Electron Energy:        -1154.89552597 Eh          -31426.30494 eV
Two Electron Energy:          348.80399969 Eh            9491.43937 eV

Virial components:
Potential Energy   :        -1477.89119545 Eh          -40215.46394 eV
Kinetic Energy     :          738.64310601 Eh           20099.50075 eV
Virial Ratio       :            2.00081905


DFT components:
N(Alpha)           :       16.000000380853 electrons
N(Beta)            :       15.000000382950 electrons
N(Total)           :       31.000000763803 electrons
E(X)               :      -47.386105776219 Eh       
E(C)               :       -1.172674699426 Eh       
E(XC)              :      -48.558780475645 Eh       
DFET-embed. en.    :        0.000000000000 Eh       

---------------
SCF CONVERGENCE
---------------

  Last Energy change         ...   -9.7771e-12  Tolerance :   1.0000e-09
  Last MAX-Density change    ...    5.2089e-06  Tolerance :   1.0000e-08
  Last RMS-Density change    ...    3.0897e-08  Tolerance :   1.0000e-09
  Last DIIS Error            ...    8.2468e-08  Tolerance :   1.0000e-08

             **** THE GBW FILE WAS UPDATED (ps_pbe.gbw) ****
             **** DENSITY FILE WAS UPDATED (ps_pbe.scfp.tmp) ****
             **** ENERGY FILE WAS UPDATED (ps_pbe.en.tmp) ****
----------------------
UHF SPIN CONTAMINATION
----------------------

Warning: in a DFT calculation there is little theoretical justification to 
         calculate <S**2> as in Hartree-Fock theory. We will do it anyways
         but you should keep in mind that the values have only limited relevance

Expectation value of <S**2>     :     0.754133
Ideal value S*(S+1) for S=0.5   :     0.750000
Deviation                       :     0.004133

----------------
ORBITAL ENERGIES
----------------
                 SPIN UP ORBITALS
  NO   OCC          E(Eh)            E(eV) 
   0   1.0000     -88.062231     -2396.2951 
   1   1.0000     -76.334970     -2077.1801 
   2   1.0000      -7.700697      -209.5466 
   3   1.0000      -6.350216      -172.7982 
   4   1.0000      -5.719876      -155.6457 
   5   1.0000      -5.717449      -155.5797 
   6   1.0000      -5.715823      -155.5355 
   7   1.0000      -4.569344      -124.3382 
   8   1.0000      -4.564593      -124.2089 
   9   1.0000      -4.562604      -124.1548 
  10   1.0000      -0.706878       -19.2351 
  11   1.0000      -0.490793       -13.3552 
  12   1.0000      -0.314603        -8.5608 
  13   1.0000      -0.304540        -8.2870 
  14   1.0000      -0.302642        -8.2353 
  15   1.0000      -0.169974        -4.6252 
  16   0.0000      -0.165491        -4.5032 
  17   0.0000      -0.021870        -0.5951 
  18   0.0000      -0.013338        -0.3629 
  19   0.0000       0.010214         0.2779 
  20   0.0000       0.011713         0.3187 
  21   0.0000       0.023638         0.6432 
  22   0.0000       0.028923         0.7870 
  23   0.0000       0.035815         0.9746 
  24   0.0000       0.037872         1.0305 
  25   0.0000       0.046935         1.2772 
  26   0.0000       0.047911         1.3037 
  27   0.0000       0.073604         2.0029 
  28   0.0000       0.077276         2.1028 
  29   0.0000       0.078818         2.1447 
  30   0.0000       0.087480         2.3805 
  31   0.0000       0.096409         2.6234 
  32   0.0000       0.097519         2.6536 
  33   0.0000       0.102446         2.7877 
  34   0.0000       0.116332         3.1656 
  35   0.0000       0.117348         3.1932 
  36   0.0000       0.127742         3.4760 
  37   0.0000       0.128446         3.4952 
  38   0.0000       0.128942         3.5087 
  39   0.0000       0.175615         4.7787 
  40   0.0000       0.177119         4.8197 
  41   0.0000       0.180003         4.8981 
  42   0.0000       0.180214         4.9039 
  43   0.0000       0.181028         4.9260 
  44   0.0000       0.183393         4.9904 
  45   0.0000       0.184912         5.0317 
  46   0.0000       0.188630         5.1329 
  47   0.0000       0.191215         5.2032 
  48   0.0000       0.206259         5.6126 
  49   0.0000       0.227659         6.1949 
  50   0.0000       0.228655         6.2220 
  51   0.0000       0.258365         7.0305 
  52   0.0000       0.258496         7.0340 
  53   0.0000       0.273283         7.4364 
  54   0.0000       0.274430         7.4676 
  55   0.0000       0.275576         7.4988 
  56   0.0000       0.279515         7.6060 
  57   0.0000       0.280475         7.6321 
  58   0.0000       0.297466         8.0945 
  59   0.0000       0.336680         9.1615 
  60   0.0000       0.336892         9.1673 
  61   0.0000       0.336918         9.1680 
  62   0.0000       0.337387         9.1808 
  63   0.0000       0.338927         9.2227 
  64   0.0000       0.376097        10.2341 
  65   0.0000       0.378751        10.3063 
  66   0.0000       0.379942        10.3388 
  67   0.0000       0.397216        10.8088 
  68   0.0000       0.399016        10.8578 
  69   0.0000       0.399581        10.8731 
  70   0.0000       0.401986        10.9386 
  71   0.0000       0.402321        10.9477 
  72   0.0000       0.403439        10.9781 
  73   0.0000       0.406130        11.0514 
  74   0.0000       0.419122        11.4049 
  75   0.0000       0.419475        11.4145 
  76   0.0000       0.450056        12.2466 
  77   0.0000       0.451499        12.2859 
  78   0.0000       0.461196        12.5498 
  79   0.0000       0.461238        12.5509 
  80   0.0000       0.464951        12.6520 
  81   0.0000       0.479297        13.0423 
  82   0.0000       0.479455        13.0466 
  83   0.0000       0.530933        14.4474 
  84   0.0000       0.530951        14.4479 
  85   0.0000       0.539762        14.6877 
  86   0.0000       0.545779        14.8514 
  87   0.0000       0.547456        14.8970 
  88   0.0000       0.552132        15.0243 
  89   0.0000       0.552854        15.0439 
  90   0.0000       0.559685        15.2298 
  91   0.0000       0.579929        15.7807 
  92   0.0000       0.580830        15.8052 
  93   0.0000       0.585377        15.9289 
  94   0.0000       0.586444        15.9580 
  95   0.0000       0.587846        15.9961 
  96   0.0000       0.588024        16.0009 
  97   0.0000       0.603272        16.4159 
  98   0.0000       0.603349        16.4179 
  99   0.0000       0.661734        18.0067 
 100   0.0000       0.661827        18.0092 
 101   0.0000       0.673170        18.3179 
 102   0.0000       0.673178        18.3181 
 103   0.0000       0.682108        18.5611 
 104   0.0000       0.705522        19.1982 
 105   0.0000       0.708108        19.2686 
 106   0.0000       0.713987        19.4286 
 107   0.0000       0.758459        20.6387 
 108   0.0000       0.758605        20.6427 
 109   0.0000       0.760228        20.6869 
 110   0.0000       0.760823        20.7030 
 111   0.0000       0.767385        20.8816 
 112   0.0000       0.767975        20.8977 
 113   0.0000       0.782711        21.2987 
 114   0.0000       0.812668        22.1138 
 115   0.0000       0.813423        22.1344 
 116   0.0000       0.857844        23.3431 
 117   0.0000       0.859021        23.3751 
 118   0.0000       0.868732        23.6394 
 119   0.0000       0.935640        25.4601 
 120   0.0000       0.940506        25.5925 
 121   0.0000       0.941525        25.6202 
 122   0.0000       0.952385        25.9157 
 123   0.0000       0.952463        25.9178 
 124   0.0000       0.960384        26.1334 
 125   0.0000       0.961891        26.1744 
 126   0.0000       0.987236        26.8641 
 127   0.0000       1.103139        30.0179 
 128   0.0000       1.103528        30.0285 
 129   0.0000       1.104420        30.0528 
 130   0.0000       1.114347        30.3229 
 131   0.0000       1.116060        30.3695 
 132   0.0000       1.205981        32.8164 
 133   0.0000       1.206158        32.8212 
 134   0.0000       1.287499        35.0346 
 135   0.0000       1.288647        35.0659 
 136   0.0000       1.290803        35.1245 
 137   0.0000       1.314593        35.7719 
 138   0.0000       1.315106        35.7858 
 139   0.0000       1.386382        37.7254 
 140   0.0000       1.387612        37.7589 
 141   0.0000       1.395570        37.9754 
 142   0.0000       1.615449        43.9586 
 143   0.0000       1.666221        45.3402 
 144   0.0000       1.667569        45.3769 
 145   0.0000       1.737605        47.2826 
 146   0.0000       2.027747        55.1778 
 147   0.0000       2.029139        55.2157 
 148   0.0000       2.039853        55.5072 
 149   0.0000       2.041498        55.5520 
 150   0.0000       2.089712        56.8640 
 151   0.0000       2.090842        56.8947 
 152   0.0000       2.102320        57.2070 
 153   0.0000       2.102564        57.2137 
 154   0.0000       2.131968        58.0138 
 155   0.0000       2.174211        59.1633 
 156   0.0000       2.174357        59.1673 
 157   0.0000       2.226294        60.5805 
 158   0.0000       2.228229        60.6332 
 159   0.0000       2.230749        60.7018 
 160   0.0000       2.231917        60.7336 
 161   0.0000       2.442455        66.4626 
 162   0.0000       2.443789        66.4989 
 163   0.0000       2.496970        67.9460 
 164   0.0000       2.496982        67.9463 
 165   0.0000       2.559555        69.6490 
 166   0.0000       2.635329        71.7109 
 167   0.0000       2.635475        71.7149 
 168   0.0000       2.704685        73.5982 
 169   0.0000       2.782090        75.7045 
 170   0.0000       2.783886        75.7534 
 171   0.0000       2.822413        76.8018 
 172   0.0000       2.822787        76.8119 
 173   0.0000       2.839816        77.2753 
 174   0.0000       2.970999        80.8450 
 175   0.0000       3.000969        81.6605 
 176   0.0000       3.002784        81.7099 
 177   0.0000       3.011600        81.9498 
 178   0.0000       3.012723        81.9804 
 179   0.0000       3.096371        84.2565 
 180   0.0000       3.097901        84.2982 
 181   0.0000       3.118568        84.8606 
 182   0.0000       3.152859        85.7937 
 183   0.0000       3.152950        85.7961 
 184   0.0000       3.282486        89.3210 
 185   0.0000       3.326674        90.5234 
 186   0.0000       3.327675        90.5506 
 187   0.0000       3.408894        92.7607 
 188   0.0000       3.409342        92.7729 
 189   0.0000       3.615640        98.3866 
 190   0.0000       3.668958        99.8374 
 191   0.0000       3.672158        99.9245 
 192   0.0000       3.827251       104.1448 
 193   0.0000       3.937995       107.1583 
 194   0.0000       3.939034       107.1866 
 195   0.0000       4.575207       124.4977 
 196   0.0000       4.575461       124.5046 
 197   0.0000       4.653512       126.6285 
 198   0.0000       4.653569       126.6301 
 199   0.0000       4.674938       127.2115 
 200   0.0000       4.674969       127.2124 
 201   0.0000       4.711774       128.2139 
 202   0.0000       4.713272       128.2546 
 203   0.0000       4.898493       133.2948 
 204   0.0000       4.916478       133.7842 
 205   0.0000       4.917562       133.8137 
 206   0.0000       5.142373       139.9311 
 207   0.0000       5.142375       139.9311 
 208   0.0000       5.172611       140.7539 
 209   0.0000       5.172622       140.7542 
 210   0.0000       5.321172       144.7964 
 211   0.0000       5.324227       144.8796 
 212   0.0000       5.326062       144.9295 
 213   0.0000       5.458656       148.5376 
 214   0.0000       5.458772       148.5407 
 215   0.0000       5.480211       149.1241 
 216   0.0000       5.481079       149.1477 
 217   0.0000       5.537412       150.6806 
 218   0.0000       5.537950       150.6953 
 219   0.0000       5.744848       156.3253 
 220   0.0000       5.795861       157.7134 
 221   0.0000       5.799642       157.8163 
 222   0.0000       6.072394       165.2382 
 223   0.0000       6.073499       165.2683 
 224   0.0000       6.317133       171.8979 
 225   0.0000       6.318825       171.9440 
 226   0.0000       6.319579       171.9645 
 227   0.0000       6.636222       180.5808 
 228   0.0000       7.253302       197.3724 
 229   0.0000       7.253328       197.3731 
 230   0.0000       7.292174       198.4301 
 231   0.0000       7.292282       198.4331 
 232   0.0000       7.477830       203.4821 
 233   0.0000       7.478923       203.5118 
 234   0.0000       7.819504       212.7795 
 235   0.0000       7.821337       212.8294 
 236   0.0000       7.879322       214.4072 
 237   0.0000       8.165784       222.2023 
 238   0.0000       8.165787       222.2024 
 239   0.0000       8.221977       223.7314 
 240   0.0000       8.222014       223.7324 
 241   0.0000       8.491801       231.0737 
 242   0.0000       8.492347       231.0885 
 243   0.0000       8.737825       237.7683 
 244   0.0000       8.738475       237.7860 
 245   0.0000       9.087124       247.2732 
 246   0.0000      10.244214       278.7592 
 247   0.0000      10.244294       278.7614 
 248   0.0000      10.251520       278.9580 
 249   0.0000      10.251807       278.9658 
 250   0.0000      10.642816       289.6058 
 251   0.0000      10.649640       289.7914 
 252   0.0000      10.730041       291.9793 
 253   0.0000      11.552160       314.3503 
 254   0.0000      11.552172       314.3506 
 255   0.0000      11.586301       315.2793 
 256   0.0000      11.586377       315.2813 
 257   0.0000      11.807694       321.3037 
 258   0.0000      11.813495       321.4615 
 259   0.0000      12.070667       328.4595 
 260   0.0000      16.046835       436.6566 
 261   0.0000      16.047066       436.6629 
 262   0.0000      16.122627       438.7190 
 263   0.0000      16.127431       438.8497 
 264   0.0000      16.589988       451.4365 
 265   0.0000      16.840010       458.2400 
 266   0.0000      16.840069       458.2416 
 267   0.0000      16.965083       461.6434 
 268   0.0000      16.968641       461.7402 
 269   0.0000      17.489362       475.9097 
 270   0.0000      21.687358       590.1430 
 271   0.0000      29.097931       791.7950 
 272   0.0000      58.815422      1600.4490 
 273   0.0000      58.815475      1600.4504 
 274   0.0000      58.862230      1601.7227 
 275   0.0000      58.862380      1601.7268 
 276   0.0000      59.150973      1609.5798 
 277   0.0000      62.351462      1696.6695 
 278   0.0000      62.351488      1696.6703 
 279   0.0000      62.426798      1698.7195 
 280   0.0000      62.427267      1698.7323 
 281   0.0000      62.738574      1707.2034 

                 SPIN DOWN ORBITALS
  NO   OCC          E(Eh)            E(eV) 
   0   1.0000     -88.060794     -2396.2560 
   1   1.0000     -76.332295     -2077.1073 
   2   1.0000      -7.699260      -209.5075 
   3   1.0000      -6.347387      -172.7212 
   4   1.0000      -5.719250      -155.6287 
   5   1.0000      -5.716635      -155.5576 
   6   1.0000      -5.711331      -155.4132 
   7   1.0000      -4.567540      -124.2891 
   8   1.0000      -4.561011      -124.1114 
   9   1.0000      -4.556554      -123.9901 
  10   1.0000      -0.699233       -19.0271 
  11   1.0000      -0.471140       -12.8204 
  12   1.0000      -0.304039        -8.2733 
  13   1.0000      -0.300675        -8.1818 
  14   1.0000      -0.279392        -7.6026 
  15   0.0000      -0.156753        -4.2655 
  16   0.0000      -0.127922        -3.4809 
  17   0.0000      -0.015377        -0.4184 
  18   0.0000      -0.006874        -0.1871 
  19   0.0000       0.013920         0.3788 
  20   0.0000       0.017077         0.4647 
  21   0.0000       0.026884         0.7315 
  22   0.0000       0.033332         0.9070 
  23   0.0000       0.039829         1.0838 
  24   0.0000       0.041636         1.1330 
  25   0.0000       0.056886         1.5480 
  26   0.0000       0.057246         1.5577 
  27   0.0000       0.077223         2.1013 
  28   0.0000       0.081601         2.2205 
  29   0.0000       0.087562         2.3827 
  30   0.0000       0.091210         2.4820 
  31   0.0000       0.099584         2.7098 
  32   0.0000       0.105707         2.8764 
  33   0.0000       0.108114         2.9419 
  34   0.0000       0.124172         3.3789 
  35   0.0000       0.124412         3.3854 
  36   0.0000       0.131146         3.5687 
  37   0.0000       0.132941         3.6175 
  38   0.0000       0.136082         3.7030 
  39   0.0000       0.179664         4.8889 
  40   0.0000       0.185790         5.0556 
  41   0.0000       0.187910         5.1133 
  42   0.0000       0.187917         5.1135 
  43   0.0000       0.191315         5.2060 
  44   0.0000       0.193693         5.2707 
  45   0.0000       0.197277         5.3682 
  46   0.0000       0.197391         5.3713 
  47   0.0000       0.197979         5.3873 
  48   0.0000       0.211741         5.7618 
  49   0.0000       0.236841         6.4448 
  50   0.0000       0.236954         6.4478 
  51   0.0000       0.263684         7.1752 
  52   0.0000       0.263685         7.1752 
  53   0.0000       0.278878         7.5887 
  54   0.0000       0.278917         7.5897 
  55   0.0000       0.286706         7.8017 
  56   0.0000       0.289463         7.8767 
  57   0.0000       0.289519         7.8782 
  58   0.0000       0.303587         8.2610 
  59   0.0000       0.340856         9.2752 
  60   0.0000       0.342778         9.3275 
  61   0.0000       0.344921         9.3858 
  62   0.0000       0.344921         9.3858 
  63   0.0000       0.345336         9.3971 
  64   0.0000       0.382842        10.4177 
  65   0.0000       0.388373        10.5682 
  66   0.0000       0.388471        10.5708 
  67   0.0000       0.401918        10.9367 
  68   0.0000       0.403214        10.9720 
  69   0.0000       0.408892        11.1265 
  70   0.0000       0.409022        11.1300 
  71   0.0000       0.411477        11.1969 
  72   0.0000       0.412428        11.2227 
  73   0.0000       0.419620        11.4184 
  74   0.0000       0.421781        11.4772 
  75   0.0000       0.432497        11.7688 
  76   0.0000       0.464610        12.6427 
  77   0.0000       0.464649        12.6437 
  78   0.0000       0.467462        12.7203 
  79   0.0000       0.467462        12.7203 
  80   0.0000       0.469841        12.7850 
  81   0.0000       0.488707        13.2984 
  82   0.0000       0.488707        13.2984 
  83   0.0000       0.538932        14.6651 
  84   0.0000       0.538932        14.6651 
  85   0.0000       0.544056        14.8045 
  86   0.0000       0.549726        14.9588 
  87   0.0000       0.555685        15.1210 
  88   0.0000       0.559709        15.2305 
  89   0.0000       0.559743        15.2314 
  90   0.0000       0.567886        15.4530 
  91   0.0000       0.588639        16.0177 
  92   0.0000       0.588813        16.0224 
  93   0.0000       0.588813        16.0224 
  94   0.0000       0.595379        16.2011 
  95   0.0000       0.595692        16.2096 
  96   0.0000       0.599969        16.3260 
  97   0.0000       0.611880        16.6501 
  98   0.0000       0.611881        16.6501 
  99   0.0000       0.667676        18.1684 
 100   0.0000       0.667678        18.1684 
 101   0.0000       0.678290        18.4572 
 102   0.0000       0.678290        18.4572 
 103   0.0000       0.686491        18.6804 
 104   0.0000       0.710803        19.3419 
 105   0.0000       0.716658        19.5012 
 106   0.0000       0.719202        19.5705 
 107   0.0000       0.763510        20.7762 
 108   0.0000       0.763557        20.7774 
 109   0.0000       0.766534        20.8585 
 110   0.0000       0.766856        20.8672 
 111   0.0000       0.769419        20.9369 
 112   0.0000       0.781198        21.2575 
 113   0.0000       0.790028        21.4978 
 114   0.0000       0.815317        22.1859 
 115   0.0000       0.824395        22.4329 
 116   0.0000       0.871965        23.7274 
 117   0.0000       0.876467        23.8499 
 118   0.0000       0.883781        24.0489 
 119   0.0000       0.942846        25.6561 
 120   0.0000       0.948841        25.8193 
 121   0.0000       0.949356        25.8333 
 122   0.0000       0.955235        25.9933 
 123   0.0000       0.967821        26.3357 
 124   0.0000       0.976132        26.5619 
 125   0.0000       0.976437        26.5702 
 126   0.0000       0.995751        27.0958 
 127   0.0000       1.112963        30.2853 
 128   0.0000       1.119732        30.4695 
 129   0.0000       1.127588        30.6832 
 130   0.0000       1.129468        30.7344 
 131   0.0000       1.140883        31.0450 
 132   0.0000       1.222313        33.2608 
 133   0.0000       1.222328        33.2612 
 134   0.0000       1.291773        35.1509 
 135   0.0000       1.297885        35.3173 
 136   0.0000       1.310761        35.6676 
 137   0.0000       1.317839        35.8602 
 138   0.0000       1.333070        36.2747 
 139   0.0000       1.394474        37.9456 
 140   0.0000       1.402199        38.1558 
 141   0.0000       1.407293        38.2944 
 142   0.0000       1.624333        44.2004 
 143   0.0000       1.669498        45.4293 
 144   0.0000       1.685493        45.8646 
 145   0.0000       1.742554        47.4173 
 146   0.0000       2.030205        55.2447 
 147   0.0000       2.048272        55.7363 
 148   0.0000       2.058561        56.0163 
 149   0.0000       2.058952        56.0269 
 150   0.0000       2.103613        57.2422 
 151   0.0000       2.104694        57.2716 
 152   0.0000       2.123342        57.7791 
 153   0.0000       2.123439        57.7817 
 154   0.0000       2.145572        58.3840 
 155   0.0000       2.214445        60.2581 
 156   0.0000       2.214466        60.2587 
 157   0.0000       2.228214        60.6328 
 158   0.0000       2.244618        61.0792 
 159   0.0000       2.244821        61.0847 
 160   0.0000       2.245962        61.1157 
 161   0.0000       2.443514        66.4914 
 162   0.0000       2.459797        66.9345 
 163   0.0000       2.512552        68.3700 
 164   0.0000       2.512552        68.3700 
 165   0.0000       2.575752        70.0898 
 166   0.0000       2.651612        72.1540 
 167   0.0000       2.651612        72.1540 
 168   0.0000       2.711783        73.7914 
 169   0.0000       2.801345        76.2285 
 170   0.0000       2.803504        76.2872 
 171   0.0000       2.851613        77.5963 
 172   0.0000       2.857316        77.7515 
 173   0.0000       2.857317        77.7515 
 174   0.0000       2.979031        81.0636 
 175   0.0000       3.004597        81.7592 
 176   0.0000       3.025201        82.3199 
 177   0.0000       3.026524        82.3559 
 178   0.0000       3.026930        82.3670 
 179   0.0000       3.103846        84.4599 
 180   0.0000       3.126347        85.0722 
 181   0.0000       3.129053        85.1458 
 182   0.0000       3.169275        86.2404 
 183   0.0000       3.169294        86.2409 
 184   0.0000       3.289060        89.4999 
 185   0.0000       3.339770        90.8798 
 186   0.0000       3.340382        90.8964 
 187   0.0000       3.410229        92.7970 
 188   0.0000       3.427946        93.2792 
 189   0.0000       3.619069        98.4799 
 190   0.0000       3.669692        99.8574 
 191   0.0000       3.685289       100.2818 
 192   0.0000       3.829723       104.2121 
 193   0.0000       3.939368       107.1957 
 194   0.0000       3.958494       107.7161 
 195   0.0000       4.595793       125.0579 
 196   0.0000       4.595802       125.0581 
 197   0.0000       4.683824       127.4533 
 198   0.0000       4.683853       127.4541 
 199   0.0000       4.722147       128.4962 
 200   0.0000       4.722147       128.4962 
 201   0.0000       4.728787       128.6768 
 202   0.0000       4.729841       128.7055 
 203   0.0000       4.912355       133.6720 
 204   0.0000       4.918734       133.8455 
 205   0.0000       4.937491       134.3560 
 206   0.0000       5.160591       140.4268 
 207   0.0000       5.160591       140.4268 
 208   0.0000       5.186778       141.1394 
 209   0.0000       5.186778       141.1394 
 210   0.0000       5.325230       144.9069 
 211   0.0000       5.344085       145.4200 
 212   0.0000       5.344179       145.4225 
 213   0.0000       5.472527       148.9150 
 214   0.0000       5.472611       148.9173 
 215   0.0000       5.484070       149.2291 
 216   0.0000       5.504070       149.7733 
 217   0.0000       5.545202       150.8926 
 218   0.0000       5.545271       150.8945 
 219   0.0000       5.757376       156.6662 
 220   0.0000       5.796463       157.7298 
 221   0.0000       5.810414       158.1094 
 222   0.0000       6.085746       165.6016 
 223   0.0000       6.085750       165.6017 
 224   0.0000       6.320576       171.9916 
 225   0.0000       6.326686       172.1579 
 226   0.0000       6.338493       172.4792 
 227   0.0000       6.644737       180.8125 
 228   0.0000       7.283580       198.1963 
 229   0.0000       7.283583       198.1964 
 230   0.0000       7.312616       198.9864 
 231   0.0000       7.312624       198.9866 
 232   0.0000       7.492414       203.8789 
 233   0.0000       7.492604       203.8841 
 234   0.0000       7.820094       212.7956 
 235   0.0000       7.839533       213.3245 
 236   0.0000       7.885840       214.5846 
 237   0.0000       8.181795       222.6380 
 238   0.0000       8.181796       222.6380 
 239   0.0000       8.233246       224.0380 
 240   0.0000       8.233246       224.0380 
 241   0.0000       8.500690       231.3155 
 242   0.0000       8.500701       231.3158 
 243   0.0000       8.736908       237.7433 
 244   0.0000       8.750345       238.1090 
 245   0.0000       9.089992       247.3513 
 246   0.0000      10.250568       278.9321 
 247   0.0000      10.250568       278.9321 
 248   0.0000      10.254855       279.0488 
 249   0.0000      10.255001       279.0528 
 250   0.0000      10.642229       289.5898 
 251   0.0000      10.654537       289.9247 
 252   0.0000      10.731562       292.0207 
 253   0.0000      11.554862       314.4238 
 254   0.0000      11.554863       314.4238 
 255   0.0000      11.587881       315.3223 
 256   0.0000      11.587951       315.3242 
 257   0.0000      11.807038       321.2858 
 258   0.0000      11.816029       321.5305 
 259   0.0000      12.071175       328.4734 
 260   0.0000      16.053088       436.8267 
 261   0.0000      16.053233       436.8307 
 262   0.0000      16.122807       438.7239 
 263   0.0000      16.133241       439.0078 
 264   0.0000      16.593179       451.5234 
 265   0.0000      16.843676       458.3397 
 266   0.0000      16.843719       458.3409 
 267   0.0000      16.964922       461.6390 
 268   0.0000      16.972610       461.8482 
 269   0.0000      17.491010       475.9546 
 270   0.0000      21.697190       590.4106 
 271   0.0000      29.102817       791.9279 
 272   0.0000      58.824366      1600.6924 
 273   0.0000      58.824426      1600.6940 
 274   0.0000      58.863926      1601.7689 
 275   0.0000      58.870945      1601.9599 
 276   0.0000      59.154970      1609.6886 
 277   0.0000      62.356251      1696.7999 
 278   0.0000      62.356274      1696.8005 
 279   0.0000      62.427226      1698.7312 
 280   0.0000      62.432290      1698.8690 
 281   0.0000      62.740662      1707.2602 

                    ********************************
                    * MULLIKEN POPULATION ANALYSIS *
                    ********************************

--------------------------------------------
MULLIKEN ATOMIC CHARGES AND SPIN POPULATIONS
--------------------------------------------
   0 S :   -0.027328    0.365788
   1 P :    0.027328    0.634212
Sum of atomic charges         :   -0.0000000
Sum of atomic spin populations:    1.0000000

-----------------------------------------------------
MULLIKEN REDUCED ORBITAL CHARGES AND SPIN POPULATIONS
-----------------------------------------------------
CHARGE
  0 S s       :     5.875753  s :     5.875753
      pz      :     3.111756  p :    10.002313
      px      :     3.623149
      py      :     3.267409
      dz2     :     0.025982  d :     0.135084
      dxz     :     0.076137
      dyz     :     0.032735
      dx2y2   :     0.000229
      dxy     :     0.000000
      f0      :     0.000265  f :     0.014146
      f+1     :     0.009146
      f-1     :     0.004618
      f+2     :     0.000035
      f-2     :     0.000000
      f+3     :     0.000042
      f-3     :     0.000038
      g0      :    -0.000477  g :     0.000076
      g+1     :     0.000238
      g-1     :     0.000292
      g+2     :     0.000011
      g-2     :     0.000000
      g+3     :     0.000006
      g-3     :     0.000005
      g+4     :     0.000000
      g-4     :     0.000000
      h0      :    -0.000053  h :    -0.000044
      h+1     :     0.000043
      h-1     :    -0.000042
      h+2     :     0.000003
      h-2     :     0.000000
      h+3     :     0.000002
      h-3     :     0.000002
      h+4     :     0.000000
      h-4     :     0.000000
      h+5     :     0.000000
      h-5     :     0.000000
  1 P s       :     5.950831  s :     5.950831
      pz      :     2.984172  p :     8.827751
      px      :     3.203274
      py      :     2.640306
      dz2     :     0.044601  d :     0.169341
      dxz     :     0.078841
      dyz     :     0.045026
      dx2y2   :     0.000873
      dxy     :     0.000000
      f0      :     0.004914  f :     0.022487
      f+1     :     0.009556
      f-1     :     0.007859
      f+2     :     0.000067
      f-2     :     0.000000
      f+3     :     0.000043
      f-3     :     0.000047
      g0      :     0.000897  g :     0.002165
      g+1     :    -0.000305
      g-1     :     0.001564
      g+2     :     0.000003
      g-2     :     0.000000
      g+3     :     0.000003
      g-3     :     0.000003
      g+4     :     0.000001
      g-4     :     0.000000
      h0      :     0.000135  h :     0.000096
      h+1     :    -0.000178
      h-1     :     0.000135
      h+2     :     0.000000
      h-2     :     0.000000
      h+3     :     0.000002
      h-3     :     0.000002
      h+4     :     0.000000
      h-4     :     0.000000
      h+5     :     0.000000
      h-5     :     0.000000

SPIN
  0 S s       :     0.011755  s :     0.011755
      pz      :     0.014156  p :     0.301538
      px      :     0.299660
      py      :    -0.012278
      dz2     :     0.003229  d :     0.045512
      dxz     :     0.042635
      dyz     :    -0.000148
      dx2y2   :    -0.000203
      dxy     :    -0.000000
      f0      :     0.001150  f :     0.005529
      f+1     :     0.004392
      f-1     :     0.000104
      f+2     :    -0.000041
      f-2     :    -0.000000
      f+3     :    -0.000040
      f-3     :    -0.000038
      g0      :     0.000381  g :     0.001130
      g+1     :     0.000489
      g-1     :     0.000284
      g+2     :    -0.000021
      g-2     :    -0.000000
      g+3     :    -0.000001
      g-3     :    -0.000002
      g+4     :     0.000000
      g-4     :     0.000000
      h0      :     0.000081  h :     0.000323
      h+1     :     0.000189
      h-1     :     0.000065
      h+2     :    -0.000007
      h-2     :    -0.000000
      h+3     :    -0.000003
      h-3     :    -0.000003
      h+4     :     0.000000
      h-4     :     0.000000
      h+5     :     0.000000
      h-5     :     0.000000
  1 P s       :    -0.011164  s :    -0.011164
      pz      :    -0.018472  p :     0.635594
      px      :     0.636116
      py      :     0.017949
      dz2     :     0.001474  d :     0.019788
      dxz     :     0.022729
      dyz     :    -0.003672
      dx2y2   :    -0.000744
      dxy     :    -0.000000
      f0      :    -0.001207  f :    -0.006525
      f+1     :    -0.003283
      f-1     :    -0.001895
      f+2     :    -0.000054
      f-2     :    -0.000000
      f+3     :    -0.000041
      f-3     :    -0.000045
      g0      :    -0.000301  g :    -0.003040
      g+1     :    -0.002454
      g-1     :    -0.000288
      g+2     :    -0.000004
      g-2     :    -0.000000
      g+3     :     0.000003
      g-3     :     0.000003
      g+4     :     0.000000
      g-4     :     0.000000
      h0      :    -0.000009  h :    -0.000441
      h+1     :    -0.000392
      h-1     :    -0.000038
      h+2     :    -0.000002
      h-2     :    -0.000000
      h+3     :    -0.000001
      h-3     :    -0.000000
      h+4     :     0.000000
      h-4     :     0.000000
      h+5     :     0.000000
      h-5     :     0.000000


                     *******************************
                     * LOEWDIN POPULATION ANALYSIS *
                     *******************************

-------------------------------------------
LOEWDIN ATOMIC CHARGES AND SPIN POPULATIONS
-------------------------------------------
   0 S :   -0.021095    0.408045
   1 P :    0.021095    0.591955

----------------------------------------------------
LOEWDIN REDUCED ORBITAL CHARGES AND SPIN POPULATIONS
----------------------------------------------------
CHARGE
  0 S s       :     5.407966  s :     5.407966
      pz      :     3.368468  p :     9.815847
      px      :     3.354876
      py      :     3.092503
      dz2     :     0.236140  d :     0.470956
      dxz     :     0.169615
      dyz     :     0.064978
      dx2y2   :     0.000222
      dxy     :     0.000000
      f0      :     0.098099  f :     0.199093
      f+1     :     0.078009
      f-1     :     0.022863
      f+2     :     0.000050
      f-2     :     0.000000
      f+3     :     0.000037
      f-3     :     0.000034
      g0      :     0.040328  g :     0.089871
      g+1     :     0.038239
      g-1     :     0.011255
      g+2     :     0.000040
      g-2     :     0.000000
      g+3     :     0.000005
      g-3     :     0.000004
      g+4     :     0.000000
      g-4     :     0.000000
      h0      :     0.014394  h :     0.037364
      h+1     :     0.015995
      h-1     :     0.006933
      h+2     :     0.000035
      h-2     :     0.000000
      h+3     :     0.000003
      h-3     :     0.000003
      h+4     :     0.000000
      h-4     :     0.000000
      h+5     :     0.000000
      h-5     :     0.000000
  1 P s       :     5.317578  s :     5.317578
      pz      :     3.105502  p :     8.697367
      px      :     2.997995
      py      :     2.593870
      dz2     :     0.246880  d :     0.562579
      dxz     :     0.195791
      dyz     :     0.119119
      dx2y2   :     0.000790
      dxy     :     0.000000
      f0      :     0.101399  f :     0.243487
      f+1     :     0.089233
      f-1     :     0.052687
      f+2     :     0.000070
      f-2     :     0.000000
      f+3     :     0.000047
      f-3     :     0.000050
      g0      :     0.044681  g :     0.110127
      g+1     :     0.041769
      g-1     :     0.023660
      g+2     :     0.000009
      g-2     :     0.000000
      g+3     :     0.000004
      g-3     :     0.000003
      g+4     :     0.000001
      g-4     :     0.000000
      h0      :     0.017342  h :     0.047767
      h+1     :     0.018380
      h-1     :     0.012034
      h+2     :     0.000006
      h-2     :     0.000000
      h+3     :     0.000002
      h-3     :     0.000002
      h+4     :     0.000000
      h-4     :     0.000000
      h+5     :     0.000000
      h-5     :     0.000000

SPIN
  0 S s       :     0.000989  s :     0.000989
      pz      :    -0.002788  p :     0.194851
      px      :     0.212225
      py      :    -0.014585
      dz2     :     0.001134  d :     0.111511
      dxz     :     0.109370
      dyz     :     0.001206
      dx2y2   :    -0.000200
      dxy     :    -0.000000
      f0      :     0.000071  f :     0.060254
      f+1     :     0.059096
      f-1     :     0.001193
      f+2     :    -0.000039
      f-2     :    -0.000000
      f+3     :    -0.000034
      f-3     :    -0.000033
      g0      :    -0.000406  g :     0.030149
      g+1     :     0.029780
      g-1     :     0.000809
      g+2     :    -0.000032
      g-2     :    -0.000000
      g+3     :    -0.000001
      g-3     :    -0.000001
      g+4     :     0.000000
      g-4     :     0.000000
      h0      :    -0.000385  h :     0.010290
      h+1     :     0.010378
      h-1     :     0.000334
      h+2     :    -0.000031
      h-2     :    -0.000000
      h+3     :    -0.000003
      h-3     :    -0.000003
      h+4     :     0.000000
      h-4     :     0.000000
      h+5     :     0.000000
      h-5     :     0.000000
  1 P s       :     0.002802  s :     0.002802
      pz      :    -0.002187  p :     0.481688
      px      :     0.466242
      py      :     0.017634
      dz2     :     0.002772  d :     0.059785
      dxz     :     0.061562
      dyz     :    -0.003841
      dx2y2   :    -0.000707
      dxy     :    -0.000000
      f0      :    -0.000702  f :     0.025889
      f+1     :     0.028889
      f-1     :    -0.002150
      f+2     :    -0.000056
      f-2     :    -0.000000
      f+3     :    -0.000044
      f-3     :    -0.000047
      g0      :    -0.000120  g :     0.015902
      g+1     :     0.016449
      g-1     :    -0.000425
      g+2     :    -0.000004
      g-2     :    -0.000000
      g+3     :     0.000001
      g-3     :     0.000001
      g+4     :     0.000001
      g-4     :     0.000000
      h0      :    -0.000106  h :     0.005889
      h+1     :     0.006092
      h-1     :    -0.000090
      h+2     :    -0.000005
      h-2     :    -0.000000
      h+3     :    -0.000001
      h-3     :    -0.000001
      h+4     :     0.000000
      h-4     :     0.000000
      h+5     :     0.000000
      h-5     :     0.000000


                      *****************************
                      * MAYER POPULATION ANALYSIS *
                      *****************************

  NA   - Mulliken gross atomic population
  ZA   - Total nuclear charge
  QA   - Mulliken gross atomic charge
  VA   - Mayer's total valence
  BVA  - Mayer's bonded valence
  FA   - Mayer's free valence

  ATOM       NA         ZA         QA         VA         BVA        FA
  0 S     16.0273    16.0000    -0.0273     2.5230     2.4000     0.1231
  1 P     14.9727    15.0000     0.0273     2.8786     2.4000     0.4787

  Mayer bond orders larger than 0.1
B(  0-S ,  1-P ) :   2.4000 

-------
TIMINGS
-------

Total SCF time: 0 days 0 hours 49 min 50 sec 

Total time                  ....    2990.399 sec
Sum of individual times     ....    2989.679 sec  (100.0%)

Fock matrix formation       ....    2983.708 sec  ( 99.8%)
  XC integration            ....      75.308 sec  (  2.5% of F)
    Basis function eval.    ....       7.645 sec  ( 10.2% of XC)
    Density eval.           ....      15.676 sec  ( 20.8% of XC)
    XC-Functional eval.     ....       1.101 sec  (  1.5% of XC)
    XC-Potential eval.      ....      50.111 sec  ( 66.5% of XC)
Diagonalization             ....       0.820 sec  (  0.0%)
Density matrix formation    ....       0.023 sec  (  0.0%)
Population analysis         ....       0.052 sec  (  0.0%)
Initial guess               ....       2.587 sec  (  0.1%)
Orbital Transformation      ....       0.000 sec  (  0.0%)
Orbital Orthonormalization  ....       0.000 sec  (  0.0%)
DIIS solution               ....       0.435 sec  (  0.0%)
Grid generation             ....       2.055 sec  (  0.1%)

-------------------------   --------------------
FINAL SINGLE POINT ENERGY      -739.248089441023
-------------------------   --------------------


                            ***************************************
                            *     ORCA property calculations      *
                            ***************************************

                                    ---------------------
                                    Active property flags
                                    ---------------------
   (+) Dipole Moment
   (+) Polarizability


------------------------------------------------------------------------------
                       ORCA ELECTRIC PROPERTIES CALCULATION
------------------------------------------------------------------------------

Dipole Moment Calculation                       ... on
Quadrupole Moment Calculation                   ... off
Polarizability Calculation                      ... Analytic (CP-SCF)
GBWName                                         ... ps_pbe.gbw
Electron density file                           ... ps_pbe.scfp.tmp
The origin for moment calculation is the CENTER OF MASS  = ( 0.000000,  0.000000  1.764310)

-------------
DIPOLE MOMENT
-------------
                                X             Y             Z
Electronic contribution:      0.00000      -0.00000       1.03075
Nuclear contribution   :      0.00000       0.00000      -0.83642
                        -----------------------------------------
Total Dipole Moment    :      0.00000      -0.00000       0.19433
                        -----------------------------------------
Magnitude (a.u.)       :      0.19433
Magnitude (Debye)      :      0.49395



--------------------
Rotational spectrum 
--------------------
 
Rotational constants in cm-1:     0.000000     0.296417     0.296417 
Rotational constants in MHz :     0.000000  8886.371340  8886.371340 

 Dipole components along the rotational axes: 
x,y,z [a.u.] :     0.194331    -0.000000     0.000000 
x,y,z [Debye]:     0.493951    -0.000000     0.000000 

 
Transforming and storing MO dipole integrals   ... done

                ... starting polarizability calculation

Opening the Dipole integral file               ... (ps_pbe.dmo.tmp) done
Reading Dipole-MO integrals                    ... done
Solving CP-SCF equations                       ... 
------------------------------------------------------------------------------
                           ORCA CP-SCF CALCULATION
------------------------------------------------------------------------------

Input orbitals are from        ... ps_pbe.gbw
Input Perturbation             ... ps_pbe.cpv.tmp
Wavefunction output            ... ps_pbe.cpu.tmp
Perturbation mode              ... Real perturbation (singlet)
Solver                         ... POPLE
Max. number of iterations      ... 200
Convergence tolerance          ... 1.000e-06
Integral handling              ... Direct
Number of perturbations        ... 3
Number of operators            ... 2
Orbital ranges used for CP-SCF:
 Operator 0:  Orbitals   0... 15  to  16...281
 Operator 1:  Orbitals   0... 14  to  15...281
DFT calculation                         ... on
Exchange functional (SCF)               ... PBE
Exchange functional (CP-SCF)            ... PBE
   PBE kappa parameter  XKappa (SCF)    ...  0.804000
   PBE kappa parameter  XKappa (CP-SCF) ...  0.804000
   PBE mue parameter   XMuePBE (SCF)    ...  0.219520
   PBE mue parameter   XMuePBE (CP-SCF) ...  0.219520
Correlation functional (SCF)            ... PBE
Correlation functional (CP-SCF)         ... PBE
   PBE beta parameter CBetaPBE (SCF)    ...  0.066725
   PBE beta parameter CBetaPBE (CP-SCF) ...  0.066725
 LDA part of GGA corr.  LDAOpt (SCF)    ... PW91-LDA
 LDA part of GGA corr.  LDAOpt (CP-SCF) ... PW91-LDA
Variables per vector in CP-SCF ... 8261
Number of vectors sought       ... 3
Recalculating density on grid  ... done
Calculating the xc-kernel      ... done
     CP-SCF ITERATION   0: 
     CP-SCF ITERATION   1:      0.921162183803
     CP-SCF ITERATION   2:      0.041613239536
     CP-SCF ITERATION   3:      0.006041310212
     CP-SCF ITERATION   4:      0.001320908194
     CP-SCF ITERATION   5:      0.000127678224
     CP-SCF ITERATION   6:      0.000017434733
     CP-SCF ITERATION   7:      0.000000887673
done
Reading CP-SCF coefficients                    ... done
Doing the polarizability tensor   ... done
Cleaning up                                    ... done

-------------------------
THE POLARIZABILITY TENSOR
-------------------------

The raw cartesian tensor (atomic units):
   40.08210     -0.00135     -0.00000  
   -0.00135     35.51231     -0.00000  
   -0.00000     -0.00000     64.57473  
diagonalized tensor: 
   35.51231     40.08210     64.57473  

    0.00030      1.00000     -0.00000  
    1.00000     -0.00030     -0.00000  
    0.00000      0.00000      1.00000  

Isotropic polarizability :  46.72305


Timings for individual modules:

Sum of individual times         ...     4799.202 sec (=  79.987 min)
GTO integral calculation        ...        1.872 sec (=   0.031 min)   0.0 %
SCF iterations                  ...     2990.427 sec (=  49.840 min)  62.3 %
Solution of CP-SCF eqns.        ...     1806.904 sec (=  30.115 min)  37.7 %
                             ****ORCA TERMINATED NORMALLY****
TOTAL RUN TIME: 0 days 1 hours 19 minutes 59 seconds 577 msec
