
                                 *****************
                                 * O   R   C   A *
                                 *****************

           --- An Ab Initio, DFT and Semiempirical electronic structure package ---

                  #######################################################
                  #                        -***-                        #
                  #          Department of theory and spectroscopy      #
                  #               Directorship: Frank Neese             #
                  #        Max Planck Institute fuer Kohlenforschung    #
                  #                Kaiser Wilhelm Platz 1               #
                  #                 D-45470 Muelheim/Ruhr               #
                  #                      Germany                        #
                  #                                                     #
                  #                  All rights reserved                #
                  #                        -***-                        #
                  #######################################################


                         Program Version 4.1.2  - RELEASE  -


 With contributions from (in alphabetic order):
   Daniel Aravena         : Magnetic Properties
   Michael Atanasov       : Ab Initio Ligand Field Theory
   Alexander A. Auer      : GIAO ZORA
   Ute Becker             : Parallelization
   Giovanni Bistoni       : ED, Open-shell LED
   Martin Brehm           : Molecular dynamics
   Dmytro Bykov           : SCF Hessian
   Vijay G. Chilkuri      : MRCI spin determinant printing
   Dipayan Datta          : RHF DLPNO-CCSD density
   Achintya Kumar Dutta   : EOM-CC, STEOM-CC
   Dmitry Ganyushin       : Spin-Orbit,Spin-Spin,Magnetic field MRCI
   Miquel Garcia          : C-PCM Hessian
   Yang Guo               : DLPNO-NEVPT2, CIM, IAO-localization
   Andreas Hansen         : Spin unrestricted coupled pair/coupled cluster methods
   Benjamin Helmich-Paris : CASSCF linear response (MC-RPA)
   Lee Huntington         : MR-EOM, pCC
   Robert Izsak           : Overlap fitted RIJCOSX, COSX-SCS-MP3, EOM
   Christian Kollmar      : KDIIS, OOCD, Brueckner-CCSD(T), CCSD density
   Simone Kossmann        : Meta GGA functionals, TD-DFT gradient, OOMP2, MP2 Hessian
   Martin Krupicka        : AUTO-CI
   Lucas Lang             : DCDCAS
   Dagmar Lenk            : GEPOL surface, SMD
   Dimitrios Liakos       : Extrapolation schemes; parallel MDCI
   Dimitrios Manganas     : ROCIS; embedding schemes
   Dimitrios Pantazis     : SARC Basis sets
   Taras Petrenko         : DFT Hessian,TD-DFT gradient, ASA, ECA, R-Raman, ABS, FL, XAS/XES, NRVS
   Peter Pinski           : DLPNO-MP2, DLPNO-MP2 Gradient
   Christoph Reimann      : Effective Core Potentials
   Marius Retegan         : Local ZFS, SOC
   Christoph Riplinger    : Optimizer, TS searches, QM/MM, DLPNO-CCSD(T), (RO)-DLPNO pert. Triples
   Tobias Risthaus        : Range-separated hybrids, TD-DFT gradient, RPA, STAB
   Michael Roemelt        : Restricted open shell CIS
   Masaaki Saitow         : Open-shell DLPNO
   Barbara Sandhoefer     : DKH picture change effects
   Avijit Sen             : IP-ROCIS
   Kantharuban Sivalingam : CASSCF convergence, NEVPT2, FIC-MRCI
   Bernardo de Souza      : ESD, SOC TD-DFT
   Georgi Stoychev        : AutoAux, RI-MP2 NMR
   Willem Van den Heuvel  : Paramagnetic NMR
   Boris Wezisla          : Elementary symmetry handling
   Frank Wennmohs         : Technical directorship


 We gratefully acknowledge several colleagues who have allowed us to
 interface, adapt or use parts of their codes:
   Stefan Grimme, W. Hujo, H. Kruse,             : VdW corrections, initial TS optimization,
                  C. Bannwarth                     DFT functionals, gCP, sTDA/sTD-DF
   Ed Valeev                                     : LibInt (2-el integral package), F12 methods
   Garnet Chan, S. Sharma, J. Yang, R. Olivares  : DMRG
   Ulf Ekstrom                                   : XCFun DFT Library
   Mihaly Kallay                                 : mrcc  (arbitrary order and MRCC methods)
   Andreas Klamt, Michael Diedenhofen            : otool_cosmo (COSMO solvation model)
   Jiri Pittner, Ondrej Demel                    : Mk-CCSD
   Frank Weinhold                                : gennbo (NPA and NBO analysis)
   Christopher J. Cramer and Donald G. Truhlar   : smd solvation model
   Lars Goerigk                                  : TD-DFT with DH, B97 family of functionals
   V. Asgeirsson, H. Jonsson                     : NEB implementation
   FAccTs GmbH                                   : IRC, NEB, NEB-TS, Multilevel


 Your calculation uses the libint2 library for the computation of 2-el integrals
 For citations please refer to: http://libint.valeyev.net

 This ORCA versions uses:
   CBLAS   interface :  Fast vector & matrix operations
   LAPACKE interface :  Fast linear algebra routines
   SCALAPACK package :  Parallel linear algebra routines


----- Orbital basis set information -----
Your calculation utilizes the basis: aug-pc-4
   H, C-F              : F. Jensen, J. Chem. Phys. 115, 9113 (2001).
                         F. Jensen, J. Chem. Phys. 116, 7372 (2002).
                         F. Jensen, J. Chem. Phys. 117, 9234 (2002).
   Si-Cl               : F. Jensen, T. Helgaker, J. Chem. Phys. 121, 3463 (2004).
   He-B, Ne-Mg, Al, Ar : F. Jensen, J. Phys. Chem. A 111, 11198 (2007).
   K, Ca, Ga-Kr        : F. Jensen, J. Chem. Phys. 136, 094110 (2012).
   Sc-Zn               : F. Jensen, J. Chem. Phys. 138, 014107 (2013).

================================================================================
                                        WARNINGS
                       Please study these warnings very carefully!
================================================================================


INFO   : the flag for use of LIBINT has been found!

================================================================================
                                       INPUT FILE
================================================================================
NAME = s2_pbe.inp
|  1> !uks pbe nori aug-pc-4 grid7 nofinalgrid verytightscf
|  2> 
|  3> %maxcore 1500
|  4> 
|  5> %pal nprocs 1 end
|  6> 
|  7> %scf
|  8> 	maxiter 200
|  9> end
| 10> %elprop
| 11> 	dipole true
| 12> 	 polar 1
| 13> 	 maxiter 200
| 14> end
| 15> 
| 16> * xyz 0 3
| 17> S 0.0000 0.0000 0.0000
| 18> S 0.0000 0.0000 1.8892
| 19> *
| 20> 
| 21>                          ****END OF INPUT****
================================================================================

                       ****************************
                       * Single Point Calculation *
                       ****************************

---------------------------------
CARTESIAN COORDINATES (ANGSTROEM)
---------------------------------
  S      0.000000    0.000000    0.000000
  S      0.000000    0.000000    1.889200

----------------------------
CARTESIAN COORDINATES (A.U.)
----------------------------
  NO LB      ZA    FRAG     MASS         X           Y           Z
   0 S    16.0000    0    32.060    0.000000    0.000000    0.000000
   1 S    16.0000    0    32.060    0.000000    0.000000    3.570071

--------------------------------
INTERNAL COORDINATES (ANGSTROEM)
--------------------------------
 S      0   0   0     0.000000000000     0.00000000     0.00000000
 S      1   0   0     1.889200000000     0.00000000     0.00000000

---------------------------
INTERNAL COORDINATES (A.U.)
---------------------------
 S      0   0   0     0.000000000000     0.00000000     0.00000000
 S      1   0   0     3.570070612204     0.00000000     0.00000000

---------------------
BASIS SET INFORMATION
---------------------
There are 1 groups of distinct atoms

 Group   1 Type S   : 44s27p7d4f3g2h contracted to 8s7p7d4f3g2h pattern {15121211111/111111111/1111111/1111/111/11}

Atom   0S    basis set group =>   1
Atom   1S    basis set group =>   1
------------------------------------------------------------------------------
                           ORCA GTO INTEGRAL CALCULATION
------------------------------------------------------------------------------

                         BASIS SET STATISTICS AND STARTUP INFO

 # of primitive gaussian shells          ...  174
 # of primitive gaussian functions       ...  474
 # of contracted shells                  ...   62
 # of contracted basis functions         ...  282
 Highest angular momentum                ...    5
 Maximum contraction depth               ...   15
 Integral package used                   ... LIBINT
 Integral threshhold            Thresh   ...  1.000e-12
 Primitive cut-off              TCut     ...  1.000e-14


------------------------------ INTEGRAL EVALUATION ----------------------------


 * One electron integrals 
 Pre-screening matrix                    ... done
 Shell pair data                         ... done (   0.001 sec)

-------------------------------------------------------------------------------
                                 ORCA SCF
-------------------------------------------------------------------------------

------------
SCF SETTINGS
------------
Hamiltonian:
 Density Functional     Method          .... DFT(GTOs)
 Exchange Functional    Exchange        .... PBE
   PBE kappa parameter   XKappa         ....  0.804000
   PBE mue parameter    XMuePBE         ....  0.219520
 Correlation Functional Correlation     .... PBE
   PBE beta parameter  CBetaPBE         ....  0.066725
 LDA part of GGA corr.  LDAOpt          .... PW91-LDA
 Gradients option       PostSCFGGA      .... off
   Density functional embedding theory  .... OFF
   NL short-range parameter             ....  6.400000


General Settings:
 Integral files         IntName         .... s2_pbe
 Hartree-Fock type      HFTyp           .... UHF
 Total Charge           Charge          ....    0
 Multiplicity           Mult            ....    3
 Number of Electrons    NEL             ....   32
 Basis Dimension        Dim             ....  282
 Nuclear Repulsion      ENuc            ....     71.7072651518 Eh

Convergence Acceleration:
 DIIS                   CNVDIIS         .... on
   Start iteration      DIISMaxIt       ....    12
   Startup error        DIISStart       ....  0.200000
   # of expansion vecs  DIISMaxEq       ....     5
   Bias factor          DIISBfac        ....   1.050
   Max. coefficient     DIISMaxC        ....  10.000
 Newton-Raphson         CNVNR           .... off
 SOSCF                  CNVSOSCF        .... off
 Level Shifting         CNVShift        .... on
   Level shift para.    LevelShift      ....    0.2500
   Turn off err/grad.   ShiftErr        ....    0.0010
 Zerner damping         CNVZerner       .... off
 Static damping         CNVDamp         .... on
   Fraction old density DampFac         ....    0.7000
   Max. Damping (<1)    DampMax         ....    0.9800
   Min. Damping (>=0)   DampMin         ....    0.0000
   Turn off err/grad.   DampErr         ....    0.1000
 Fernandez-Rico         CNVRico         .... off

SCF Procedure:
 Maximum # iterations   MaxIter         ....   200
 SCF integral mode      SCFMode         .... Direct
   Integral package                     .... LIBINT
 Reset frequency        DirectResetFreq ....    20
 Integral Threshold     Thresh          ....  1.000e-12 Eh
 Primitive CutOff       TCut            ....  1.000e-14 Eh

Convergence Tolerance:
 Convergence Check Mode ConvCheckMode   .... Total+1el-Energy
 Convergence forced     ConvForced      .... 0
 Energy Change          TolE            ....  1.000e-09 Eh
 1-El. energy change                    ....  1.000e-06 Eh
 DIIS Error             TolErr          ....  1.000e-08


Diagonalization of the overlap matrix:
Smallest eigenvalue                        ... 3.672e-06
Time for diagonalization                   ...    0.016 sec
Threshold for overlap eigenvalues          ... 1.000e-08
Number of eigenvalues below threshold      ... 0
Time for construction of square roots      ...    0.010 sec
Total time needed                          ...    0.026 sec

-------------------
DFT GRID GENERATION
-------------------

General Integration Accuracy     IntAcc      ...  5.670
Radial Grid Type                 RadialGrid  ... Gauss-Chebyshev
Angular Grid (max. acc.)         AngularGrid ... Lebedev-770
Angular grid pruning method      GridPruning ... 3 (G Style)
Weight generation scheme         WeightScheme... Becke
Basis function cutoff            BFCut       ...    1.0000e-12
Integration weight cutoff        WCut        ...    1.0000e-14
Grids for H and He will be reduced by one unit

# of grid points (after initial pruning)     ...  54384 (   0.0 sec)
# of grid points (after weights+screening)   ...  54236 (   0.0 sec)
nearest neighbour list constructed           ...    0.0 sec
Grid point re-assignment to atoms done       ...    0.0 sec
Grid point division into batches done        ...    1.7 sec
Reduced shell lists constructed in    2.3 sec

Total number of grid points                  ...    54236
Total number of batches                      ...      848
Average number of points per batch           ...       63
Average number of grid points per atom       ...    27118
Average number of shells per batch           ...    47.30 (76.29%)
Average number of basis functions per batch  ...   219.51 (77.84%)
Average number of large shells per batch     ...    42.60 (90.05%)
Average number of large basis fcns per batch ...   198.34 (90.35%)
Maximum spatial batch extension              ...  14.80, 19.00, 20.85 au
Average spatial batch extension              ...   2.62,  2.63,  2.43 au

Time for grid setup =    2.390 sec

------------------------------
INITIAL GUESS: MODEL POTENTIAL
------------------------------
Loading Hartree-Fock densities                     ... done
Calculating cut-offs                               ... done
Setting up the integral package                    ... done
Initializing the effective Hamiltonian             ... done
Starting the Coulomb interaction                   ... done (   0.1 sec)
Reading the grid                                   ... done
Mapping shells                                     ... done
Starting the XC term evaluation                    ... done (   2.5 sec)
  promolecular density results
     # of electrons  =     32.000000504
     EX              =    -49.749324014
     EC              =     -1.228111685
     EX+EC           =    -50.977435698
Transforming the Hamiltonian                       ... done (   0.0 sec)
Diagonalizing the Hamiltonian                      ... done (   0.0 sec)
Back transforming the eigenvectors                 ... done (   0.0 sec)
Now organizing SCF variables                       ... done
                      ------------------
                      INITIAL GUESS DONE (   5.2 sec)
                      ------------------
--------------
SCF ITERATIONS
--------------
ITER       Energy         Delta-E        Max-DP      RMS-DP      [F,P]     Damp
               ***  Starting incremental Fock matrix formation  ***
  0   -796.0833796824   0.000000000000 0.01449415  0.00014406  0.0369781 0.7000
  1   -796.0856821456  -0.002302463227 0.00912130  0.00009872  0.0193588 0.7000
                               ***Turning on DIIS***
  2   -796.0867726354  -0.001090489857 0.01888636  0.00020046  0.0067303 0.0000
  3   -796.0885576312  -0.001784995810 0.00357985  0.00004304  0.0119191 0.0000
  4   -796.0889920986  -0.000434467326 0.00163941  0.00002385  0.0026365 0.0000
  5   -796.0890397437  -0.000047645102 0.00124520  0.00001432  0.0006367 0.0000
  6   -796.0890484060  -0.000008662321 0.00028613  0.00000276  0.0000520 0.0000
  7   -796.0890485302  -0.000000124186 0.00005867  0.00000053  0.0000171 0.0000
  8   -796.0890485364  -0.000000006247 0.00001183  0.00000013  0.0000055 0.0000
  9   -796.0890485369  -0.000000000502 0.00003303  0.00000031  0.0000007 0.0000
                 **** Energy Check signals convergence ****

               *****************************************************
               *                     SUCCESS                       *
               *           SCF CONVERGED AFTER  10 CYCLES          *
               *****************************************************


----------------
TOTAL SCF ENERGY
----------------

Total Energy       :         -796.08904854 Eh          -21662.68432 eV

Components:
Nuclear Repulsion  :           71.70726515 Eh            1951.25388 eV
Electronic Energy  :         -867.79631369 Eh          -23613.93820 eV
One Electron Energy:        -1242.39291521 Eh          -33807.22995 eV
Two Electron Energy:          374.59660152 Eh           10193.29174 eV

Virial components:
Potential Energy   :        -1591.53584289 Eh          -43307.89202 eV
Kinetic Energy     :          795.44679436 Eh           21645.20770 eV
Virial Ratio       :            2.00080741


DFT components:
N(Alpha)           :       17.000000389145 electrons
N(Beta)            :       15.000000392050 electrons
N(Total)           :       32.000000781195 electrons
E(X)               :      -49.790233877225 Eh       
E(C)               :       -1.221694195638 Eh       
E(XC)              :      -51.011928072863 Eh       
DFET-embed. en.    :        0.000000000000 Eh       

---------------
SCF CONVERGENCE
---------------

  Last Energy change         ...   -2.0577e-11  Tolerance :   1.0000e-09
  Last MAX-Density change    ...    4.4576e-06  Tolerance :   1.0000e-08
  Last RMS-Density change    ...    4.3488e-08  Tolerance :   1.0000e-09
  Last DIIS Error            ...    7.7685e-08  Tolerance :   1.0000e-08

             **** THE GBW FILE WAS UPDATED (s2_pbe.gbw) ****
             **** DENSITY FILE WAS UPDATED (s2_pbe.scfp.tmp) ****
             **** ENERGY FILE WAS UPDATED (s2_pbe.en.tmp) ****
----------------------
UHF SPIN CONTAMINATION
----------------------

Warning: in a DFT calculation there is little theoretical justification to 
         calculate <S**2> as in Hartree-Fock theory. We will do it anyways
         but you should keep in mind that the values have only limited relevance

Expectation value of <S**2>     :     2.005241
Ideal value S*(S+1) for S=1.0   :     2.000000
Deviation                       :     0.005241

----------------
ORBITAL ENERGIES
----------------
                 SPIN UP ORBITALS
  NO   OCC          E(Eh)            E(eV) 
   0   1.0000     -88.085808     -2396.9367 
   1   1.0000     -88.085808     -2396.9367 
   2   1.0000      -7.721992      -210.1261 
   3   1.0000      -7.721830      -210.1217 
   4   1.0000      -5.740562      -156.2086 
   5   1.0000      -5.739750      -156.1866 
   6   1.0000      -5.739645      -156.1837 
   7   1.0000      -5.739645      -156.1837 
   8   1.0000      -5.739580      -156.1819 
   9   1.0000      -5.739580      -156.1819 
  10   1.0000      -0.771037       -20.9810 
  11   1.0000      -0.572817       -15.5871 
  12   1.0000      -0.366242        -9.9659 
  13   1.0000      -0.340185        -9.2569 
  14   1.0000      -0.340185        -9.2569 
  15   1.0000      -0.213769        -5.8169 
  16   1.0000      -0.213769        -5.8169 
  17   0.0000      -0.047923        -1.3041 
  18   0.0000      -0.011146        -0.3033 
  19   0.0000       0.012900         0.3510 
  20   0.0000       0.012900         0.3510 
  21   0.0000       0.018672         0.5081 
  22   0.0000       0.026952         0.7334 
  23   0.0000       0.036792         1.0012 
  24   0.0000       0.036792         1.0012 
  25   0.0000       0.054187         1.4745 
  26   0.0000       0.054187         1.4745 
  27   0.0000       0.072223         1.9653 
  28   0.0000       0.087356         2.3771 
  29   0.0000       0.087356         2.3771 
  30   0.0000       0.089626         2.4388 
  31   0.0000       0.115755         3.1498 
  32   0.0000       0.115755         3.1498 
  33   0.0000       0.118174         3.2157 
  34   0.0000       0.118174         3.2157 
  35   0.0000       0.119903         3.2627 
  36   0.0000       0.119903         3.2627 
  37   0.0000       0.133327         3.6280 
  38   0.0000       0.182248         4.9592 
  39   0.0000       0.182248         4.9592 
  40   0.0000       0.185074         5.0361 
  41   0.0000       0.194704         5.2982 
  42   0.0000       0.199861         5.4385 
  43   0.0000       0.199861         5.4385 
  44   0.0000       0.202335         5.5058 
  45   0.0000       0.202335         5.5058 
  46   0.0000       0.204952         5.5770 
  47   0.0000       0.210016         5.7148 
  48   0.0000       0.210016         5.7148 
  49   0.0000       0.245900         6.6913 
  50   0.0000       0.245901         6.6913 
  51   0.0000       0.251828         6.8526 
  52   0.0000       0.251828         6.8526 
  53   0.0000       0.288902         7.8614 
  54   0.0000       0.291039         7.9196 
  55   0.0000       0.291039         7.9196 
  56   0.0000       0.293657         7.9908 
  57   0.0000       0.334642         9.1061 
  58   0.0000       0.334642         9.1061 
  59   0.0000       0.340160         9.2562 
  60   0.0000       0.340160         9.2562 
  61   0.0000       0.364288         9.9128 
  62   0.0000       0.385145        10.4803 
  63   0.0000       0.385145        10.4803 
  64   0.0000       0.391296        10.6477 
  65   0.0000       0.391296        10.6477 
  66   0.0000       0.396329        10.7847 
  67   0.0000       0.396329        10.7847 
  68   0.0000       0.425234        11.5712 
  69   0.0000       0.425234        11.5712 
  70   0.0000       0.427182        11.6242 
  71   0.0000       0.456367        12.4184 
  72   0.0000       0.456367        12.4184 
  73   0.0000       0.457627        12.4527 
  74   0.0000       0.469350        12.7717 
  75   0.0000       0.469350        12.7717 
  76   0.0000       0.475246        12.9321 
  77   0.0000       0.475246        12.9321 
  78   0.0000       0.493503        13.4289 
  79   0.0000       0.493503        13.4289 
  80   0.0000       0.531306        14.4576 
  81   0.0000       0.531306        14.4576 
  82   0.0000       0.557291        15.1646 
  83   0.0000       0.559548        15.2261 
  84   0.0000       0.559548        15.2261 
  85   0.0000       0.573474        15.6050 
  86   0.0000       0.573474        15.6050 
  87   0.0000       0.585832        15.9413 
  88   0.0000       0.594002        16.1636 
  89   0.0000       0.594002        16.1636 
  90   0.0000       0.612031        16.6542 
  91   0.0000       0.634156        17.2563 
  92   0.0000       0.634156        17.2563 
  93   0.0000       0.637451        17.3459 
  94   0.0000       0.637451        17.3459 
  95   0.0000       0.641096        17.4451 
  96   0.0000       0.641096        17.4451 
  97   0.0000       0.647605        17.6222 
  98   0.0000       0.647605        17.6222 
  99   0.0000       0.682381        18.5685 
 100   0.0000       0.682381        18.5685 
 101   0.0000       0.694674        18.9031 
 102   0.0000       0.694674        18.9031 
 103   0.0000       0.726790        19.7770 
 104   0.0000       0.776127        21.1195 
 105   0.0000       0.790305        21.5053 
 106   0.0000       0.790305        21.5053 
 107   0.0000       0.801725        21.8160 
 108   0.0000       0.801725        21.8160 
 109   0.0000       0.807460        21.9721 
 110   0.0000       0.807460        21.9721 
 111   0.0000       0.844473        22.9793 
 112   0.0000       0.844473        22.9793 
 113   0.0000       0.848247        23.0820 
 114   0.0000       0.848247        23.0820 
 115   0.0000       0.851415        23.1682 
 116   0.0000       0.894187        24.3321 
 117   0.0000       0.944526        25.7019 
 118   0.0000       0.950135        25.8545 
 119   0.0000       0.950135        25.8545 
 120   0.0000       0.962130        26.1809 
 121   0.0000       0.962130        26.1809 
 122   0.0000       0.992296        27.0018 
 123   0.0000       0.992296        27.0018 
 124   0.0000       1.032992        28.1091 
 125   0.0000       1.032992        28.1091 
 126   0.0000       1.118643        30.4398 
 127   0.0000       1.190752        32.4020 
 128   0.0000       1.197882        32.5960 
 129   0.0000       1.197882        32.5960 
 130   0.0000       1.210368        32.9358 
 131   0.0000       1.210368        32.9358 
 132   0.0000       1.298624        35.3373 
 133   0.0000       1.298624        35.3373 
 134   0.0000       1.319610        35.9084 
 135   0.0000       1.319610        35.9084 
 136   0.0000       1.366884        37.1948 
 137   0.0000       1.415244        38.5108 
 138   0.0000       1.415244        38.5108 
 139   0.0000       1.419890        38.6372 
 140   0.0000       1.433103        38.9967 
 141   0.0000       1.433103        38.9967 
 142   0.0000       1.668204        45.3942 
 143   0.0000       1.738845        47.3164 
 144   0.0000       1.738845        47.3164 
 145   0.0000       1.901303        51.7371 
 146   0.0000       2.087356        56.7998 
 147   0.0000       2.087356        56.7999 
 148   0.0000       2.115378        57.5624 
 149   0.0000       2.115378        57.5624 
 150   0.0000       2.153564        58.6015 
 151   0.0000       2.169665        59.0396 
 152   0.0000       2.169666        59.0396 
 153   0.0000       2.268927        61.7406 
 154   0.0000       2.268927        61.7406 
 155   0.0000       2.290454        62.3264 
 156   0.0000       2.290454        62.3264 
 157   0.0000       2.346534        63.8524 
 158   0.0000       2.346534        63.8524 
 159   0.0000       2.421472        65.8916 
 160   0.0000       2.421472        65.8916 
 161   0.0000       2.488808        67.7239 
 162   0.0000       2.488808        67.7239 
 163   0.0000       2.507411        68.2301 
 164   0.0000       2.507411        68.2301 
 165   0.0000       2.721773        74.0632 
 166   0.0000       2.721773        74.0632 
 167   0.0000       2.749461        74.8166 
 168   0.0000       2.853388        77.6446 
 169   0.0000       3.033994        82.5592 
 170   0.0000       3.050664        83.0128 
 171   0.0000       3.080266        83.8183 
 172   0.0000       3.080266        83.8183 
 173   0.0000       3.088225        84.0349 
 174   0.0000       3.088226        84.0349 
 175   0.0000       3.124005        85.0085 
 176   0.0000       3.124005        85.0085 
 177   0.0000       3.227116        87.8143 
 178   0.0000       3.227116        87.8143 
 179   0.0000       3.367810        91.6428 
 180   0.0000       3.367810        91.6428 
 181   0.0000       3.379923        91.9724 
 182   0.0000       3.409162        92.7680 
 183   0.0000       3.409162        92.7680 
 184   0.0000       3.469380        94.4066 
 185   0.0000       3.469380        94.4066 
 186   0.0000       3.649476        99.3073 
 187   0.0000       3.663084        99.6776 
 188   0.0000       3.663084        99.6776 
 189   0.0000       3.683776       100.2406 
 190   0.0000       3.696461       100.5858 
 191   0.0000       3.696461       100.5858 
 192   0.0000       3.951624       107.5291 
 193   0.0000       4.072034       110.8057 
 194   0.0000       4.072034       110.8057 
 195   0.0000       4.832378       131.4957 
 196   0.0000       4.832378       131.4957 
 197   0.0000       4.899956       133.3346 
 198   0.0000       4.899956       133.3346 
 199   0.0000       5.002897       136.1358 
 200   0.0000       5.002898       136.1358 
 201   0.0000       5.060674       137.7079 
 202   0.0000       5.060674       137.7079 
 203   0.0000       5.073480       138.0564 
 204   0.0000       5.098145       138.7276 
 205   0.0000       5.098145       138.7276 
 206   0.0000       5.122447       139.3889 
 207   0.0000       5.122447       139.3889 
 208   0.0000       5.227315       142.2425 
 209   0.0000       5.227316       142.2425 
 210   0.0000       5.376200       146.2938 
 211   0.0000       5.521055       150.2355 
 212   0.0000       5.521056       150.2356 
 213   0.0000       5.572523       151.6361 
 214   0.0000       5.572525       151.6361 
 215   0.0000       5.577530       151.7723 
 216   0.0000       5.577530       151.7723 
 217   0.0000       5.697494       155.0367 
 218   0.0000       5.697494       155.0367 
 219   0.0000       5.837132       158.8364 
 220   0.0000       5.837132       158.8364 
 221   0.0000       5.985205       162.8657 
 222   0.0000       6.219931       169.2529 
 223   0.0000       6.219932       169.2530 
 224   0.0000       6.483286       176.4192 
 225   0.0000       6.537370       177.8909 
 226   0.0000       6.537370       177.8909 
 227   0.0000       6.862489       186.7378 
 228   0.0000       8.088522       220.0999 
 229   0.0000       8.088522       220.0999 
 230   0.0000       8.113022       220.7666 
 231   0.0000       8.113025       220.7666 
 232   0.0000       8.149903       221.7701 
 233   0.0000       8.149905       221.7702 
 234   0.0000       8.204683       223.2608 
 235   0.0000       8.204683       223.2608 
 236   0.0000       8.274063       225.1487 
 237   0.0000       8.274063       225.1487 
 238   0.0000       8.519906       231.8384 
 239   0.0000       8.632420       234.9001 
 240   0.0000       8.632420       234.9001 
 241   0.0000       8.693660       236.5665 
 242   0.0000       8.693660       236.5665 
 243   0.0000       8.900033       242.1822 
 244   0.0000       8.900033       242.1822 
 245   0.0000       9.360107       254.7015 
 246   0.0000      11.516752       313.3868 
 247   0.0000      11.516757       313.3869 
 248   0.0000      11.536963       313.9367 
 249   0.0000      11.536963       313.9367 
 250   0.0000      11.578939       315.0790 
 251   0.0000      11.578939       315.0790 
 252   0.0000      11.606884       315.8394 
 253   0.0000      11.606889       315.8395 
 254   0.0000      11.651450       317.0521 
 255   0.0000      11.651450       317.0521 
 256   0.0000      11.675639       317.7103 
 257   0.0000      11.931980       324.6857 
 258   0.0000      11.931980       324.6857 
 259   0.0000      12.273698       333.9843 
 260   0.0000      16.818406       457.6521 
 261   0.0000      16.818409       457.6522 
 262   0.0000      16.854202       458.6261 
 263   0.0000      16.854204       458.6262 
 264   0.0000      16.885258       459.4712 
 265   0.0000      16.885258       459.4712 
 266   0.0000      16.963083       461.5889 
 267   0.0000      16.963083       461.5889 
 268   0.0000      17.413759       473.8525 
 269   0.0000      17.482260       475.7165 
 270   0.0000      27.094050       737.2666 
 271   0.0000      30.612197       833.0002 
 272   0.0000      62.326825      1695.9991 
 273   0.0000      62.326826      1695.9992 
 274   0.0000      62.346736      1696.5409 
 275   0.0000      62.346737      1696.5410 
 276   0.0000      62.364017      1697.0112 
 277   0.0000      62.364017      1697.0112 
 278   0.0000      62.417441      1698.4649 
 279   0.0000      62.417441      1698.4649 
 280   0.0000      62.683905      1705.7158 
 281   0.0000      62.709425      1706.4102 

                 SPIN DOWN ORBITALS
  NO   OCC          E(Eh)            E(eV) 
   0   1.0000     -88.080816     -2396.8009 
   1   1.0000     -88.080816     -2396.8009 
   2   1.0000      -7.717006      -209.9904 
   3   1.0000      -7.716843      -209.9860 
   4   1.0000      -5.737627      -156.1288 
   5   1.0000      -5.736811      -156.1066 
   6   1.0000      -5.730815      -155.9434 
   7   1.0000      -5.730815      -155.9434 
   8   1.0000      -5.730750      -155.9416 
   9   1.0000      -5.730750      -155.9416 
  10   1.0000      -0.750253       -20.4154 
  11   1.0000      -0.531586       -14.4652 
  12   1.0000      -0.345625        -9.4049 
  13   1.0000      -0.306471        -8.3395 
  14   1.0000      -0.306471        -8.3395 
  15   0.0000      -0.165813        -4.5120 
  16   0.0000      -0.165813        -4.5120 
  17   0.0000      -0.032046        -0.8720 
  18   0.0000      -0.001928        -0.0525 
  19   0.0000       0.018850         0.5129 
  20   0.0000       0.018850         0.5129 
  21   0.0000       0.025242         0.6869 
  22   0.0000       0.031581         0.8594 
  23   0.0000       0.042787         1.1643 
  24   0.0000       0.042787         1.1643 
  25   0.0000       0.068640         1.8678 
  26   0.0000       0.068640         1.8678 
  27   0.0000       0.080354         2.1866 
  28   0.0000       0.096325         2.6211 
  29   0.0000       0.097794         2.6611 
  30   0.0000       0.097794         2.6611 
  31   0.0000       0.123780         3.3682 
  32   0.0000       0.123780         3.3682 
  33   0.0000       0.128978         3.5097 
  34   0.0000       0.128978         3.5097 
  35   0.0000       0.132898         3.6163 
  36   0.0000       0.132898         3.6163 
  37   0.0000       0.139305         3.7907 
  38   0.0000       0.192238         5.2311 
  39   0.0000       0.197876         5.3845 
  40   0.0000       0.197876         5.3845 
  41   0.0000       0.205323         5.5871 
  42   0.0000       0.208032         5.6608 
  43   0.0000       0.208032         5.6608 
  44   0.0000       0.211309         5.7500 
  45   0.0000       0.218912         5.9569 
  46   0.0000       0.218912         5.9569 
  47   0.0000       0.221313         6.0222 
  48   0.0000       0.221313         6.0222 
  49   0.0000       0.262522         7.1436 
  50   0.0000       0.262522         7.1436 
  51   0.0000       0.271752         7.3947 
  52   0.0000       0.271752         7.3947 
  53   0.0000       0.298894         8.1333 
  54   0.0000       0.302805         8.2397 
  55   0.0000       0.302805         8.2397 
  56   0.0000       0.302999         8.2450 
  57   0.0000       0.347097         9.4450 
  58   0.0000       0.347097         9.4450 
  59   0.0000       0.349175         9.5015 
  60   0.0000       0.349175         9.5015 
  61   0.0000       0.371639        10.1128 
  62   0.0000       0.393874        10.7179 
  63   0.0000       0.393874        10.7179 
  64   0.0000       0.401290        10.9197 
  65   0.0000       0.401290        10.9197 
  66   0.0000       0.413478        11.2513 
  67   0.0000       0.413478        11.2513 
  68   0.0000       0.438014        11.9190 
  69   0.0000       0.445662        12.1271 
  70   0.0000       0.445662        12.1271 
  71   0.0000       0.466258        12.6875 
  72   0.0000       0.466258        12.6875 
  73   0.0000       0.472436        12.8556 
  74   0.0000       0.482155        13.1201 
  75   0.0000       0.482155        13.1201 
  76   0.0000       0.487770        13.2729 
  77   0.0000       0.487770        13.2729 
  78   0.0000       0.516650        14.0588 
  79   0.0000       0.516650        14.0588 
  80   0.0000       0.546849        14.8805 
  81   0.0000       0.546849        14.8805 
  82   0.0000       0.564895        15.3716 
  83   0.0000       0.567744        15.4491 
  84   0.0000       0.567744        15.4491 
  85   0.0000       0.587623        15.9900 
  86   0.0000       0.587623        15.9900 
  87   0.0000       0.594683        16.1822 
  88   0.0000       0.601106        16.3569 
  89   0.0000       0.601106        16.3569 
  90   0.0000       0.621433        16.9100 
  91   0.0000       0.651153        17.7188 
  92   0.0000       0.651153        17.7188 
  93   0.0000       0.651229        17.7208 
  94   0.0000       0.651229        17.7208 
  95   0.0000       0.653286        17.7768 
  96   0.0000       0.653286        17.7768 
  97   0.0000       0.664489        18.0817 
  98   0.0000       0.664489        18.0817 
  99   0.0000       0.690645        18.7934 
 100   0.0000       0.690645        18.7934 
 101   0.0000       0.707331        19.2475 
 102   0.0000       0.707331        19.2475 
 103   0.0000       0.732300        19.9269 
 104   0.0000       0.785209        21.3666 
 105   0.0000       0.799544        21.7567 
 106   0.0000       0.799544        21.7567 
 107   0.0000       0.812201        22.1011 
 108   0.0000       0.812201        22.1011 
 109   0.0000       0.819453        22.2984 
 110   0.0000       0.819453        22.2984 
 111   0.0000       0.856001        23.2930 
 112   0.0000       0.856001        23.2930 
 113   0.0000       0.863386        23.4939 
 114   0.0000       0.863386        23.4939 
 115   0.0000       0.865496        23.5513 
 116   0.0000       0.905209        24.6320 
 117   0.0000       0.967703        26.3325 
 118   0.0000       0.979874        26.6637 
 119   0.0000       0.979874        26.6637 
 120   0.0000       0.982315        26.7301 
 121   0.0000       0.982315        26.7301 
 122   0.0000       1.006679        27.3931 
 123   0.0000       1.006679        27.3931 
 124   0.0000       1.055069        28.7099 
 125   0.0000       1.055069        28.7099 
 126   0.0000       1.133190        30.8357 
 127   0.0000       1.212292        32.9881 
 128   0.0000       1.230990        33.4969 
 129   0.0000       1.230990        33.4969 
 130   0.0000       1.233230        33.5579 
 131   0.0000       1.233230        33.5579 
 132   0.0000       1.343126        36.5483 
 133   0.0000       1.343126        36.5483 
 134   0.0000       1.347354        36.6634 
 135   0.0000       1.347354        36.6634 
 136   0.0000       1.371561        37.3221 
 137   0.0000       1.432624        38.9837 
 138   0.0000       1.445001        39.3205 
 139   0.0000       1.445001        39.3205 
 140   0.0000       1.465284        39.8724 
 141   0.0000       1.465284        39.8724 
 142   0.0000       1.683857        45.8201 
 143   0.0000       1.762178        47.9513 
 144   0.0000       1.762178        47.9513 
 145   0.0000       1.917764        52.1850 
 146   0.0000       2.118386        57.6442 
 147   0.0000       2.118386        57.6442 
 148   0.0000       2.130411        57.9714 
 149   0.0000       2.130411        57.9714 
 150   0.0000       2.171604        59.0924 
 151   0.0000       2.204530        59.9883 
 152   0.0000       2.204531        59.9883 
 153   0.0000       2.291188        62.3464 
 154   0.0000       2.291188        62.3464 
 155   0.0000       2.321139        63.1614 
 156   0.0000       2.321139        63.1614 
 157   0.0000       2.372707        64.5646 
 158   0.0000       2.372707        64.5646 
 159   0.0000       2.474306        67.3293 
 160   0.0000       2.474306        67.3293 
 161   0.0000       2.509548        68.2883 
 162   0.0000       2.509548        68.2883 
 163   0.0000       2.563688        69.7615 
 164   0.0000       2.563688        69.7615 
 165   0.0000       2.762011        75.1582 
 166   0.0000       2.762011        75.1582 
 167   0.0000       2.775836        75.5344 
 168   0.0000       2.873452        78.1906 
 169   0.0000       3.056417        83.1693 
 170   0.0000       3.070486        83.5522 
 171   0.0000       3.112683        84.7004 
 172   0.0000       3.112683        84.7004 
 173   0.0000       3.121287        84.9345 
 174   0.0000       3.121287        84.9345 
 175   0.0000       3.179236        86.5114 
 176   0.0000       3.179236        86.5114 
 177   0.0000       3.282855        89.3310 
 178   0.0000       3.282855        89.3310 
 179   0.0000       3.392385        92.3115 
 180   0.0000       3.396724        92.4296 
 181   0.0000       3.396724        92.4296 
 182   0.0000       3.443942        93.7144 
 183   0.0000       3.443943        93.7144 
 184   0.0000       3.493313        95.0579 
 185   0.0000       3.493313        95.0579 
 186   0.0000       3.674504        99.9883 
 187   0.0000       3.687818       100.3506 
 188   0.0000       3.687818       100.3506 
 189   0.0000       3.693070       100.4935 
 190   0.0000       3.722017       101.2812 
 191   0.0000       3.722017       101.2812 
 192   0.0000       3.956778       107.6694 
 193   0.0000       4.095409       111.4417 
 194   0.0000       4.095409       111.4417 
 195   0.0000       4.868250       132.4718 
 196   0.0000       4.868250       132.4718 
 197   0.0000       4.930315       134.1607 
 198   0.0000       4.930315       134.1607 
 199   0.0000       5.049675       137.4086 
 200   0.0000       5.049675       137.4087 
 201   0.0000       5.084418       138.3540 
 202   0.0000       5.084418       138.3540 
 203   0.0000       5.097270       138.7038 
 204   0.0000       5.163540       140.5071 
 205   0.0000       5.163540       140.5071 
 206   0.0000       5.188186       141.1777 
 207   0.0000       5.188186       141.1777 
 208   0.0000       5.275263       143.5472 
 209   0.0000       5.275263       143.5472 
 210   0.0000       5.388383       146.6254 
 211   0.0000       5.547320       150.9502 
 212   0.0000       5.547321       150.9503 
 213   0.0000       5.600207       152.3894 
 214   0.0000       5.600208       152.3894 
 215   0.0000       5.613779       152.7587 
 216   0.0000       5.613779       152.7587 
 217   0.0000       5.715744       155.5333 
 218   0.0000       5.715744       155.5333 
 219   0.0000       5.856154       159.3541 
 220   0.0000       5.856154       159.3541 
 221   0.0000       6.005512       163.4183 
 222   0.0000       6.249999       170.0711 
 223   0.0000       6.250000       170.0711 
 224   0.0000       6.510019       177.1466 
 225   0.0000       6.562420       178.5725 
 226   0.0000       6.562420       178.5725 
 227   0.0000       6.879675       187.2055 
 228   0.0000       8.127171       221.1516 
 229   0.0000       8.127171       221.1516 
 230   0.0000       8.168522       222.2768 
 231   0.0000       8.168523       222.2768 
 232   0.0000       8.205675       223.2878 
 233   0.0000       8.205675       223.2878 
 234   0.0000       8.232626       224.0211 
 235   0.0000       8.232627       224.0212 
 236   0.0000       8.313244       226.2149 
 237   0.0000       8.313244       226.2149 
 238   0.0000       8.537509       232.3174 
 239   0.0000       8.660354       235.6602 
 240   0.0000       8.660355       235.6602 
 241   0.0000       8.712445       237.0777 
 242   0.0000       8.712445       237.0777 
 243   0.0000       8.919749       242.7187 
 244   0.0000       8.919749       242.7187 
 245   0.0000       9.368508       254.9301 
 246   0.0000      11.522285       313.5373 
 247   0.0000      11.522288       313.5374 
 248   0.0000      11.546575       314.1983 
 249   0.0000      11.546575       314.1983 
 250   0.0000      11.588817       315.3477 
 251   0.0000      11.588817       315.3477 
 252   0.0000      11.612314       315.9871 
 253   0.0000      11.612317       315.9872 
 254   0.0000      11.656117       317.1791 
 255   0.0000      11.656117       317.1791 
 256   0.0000      11.679208       317.8074 
 257   0.0000      11.934082       324.7429 
 258   0.0000      11.934082       324.7429 
 259   0.0000      12.274908       334.0172 
 260   0.0000      16.830974       457.9941 
 261   0.0000      16.830975       457.9941 
 262   0.0000      16.866960       458.9733 
 263   0.0000      16.866961       458.9733 
 264   0.0000      16.891580       459.6433 
 265   0.0000      16.891580       459.6433 
 266   0.0000      16.969703       461.7691 
 267   0.0000      16.969703       461.7691 
 268   0.0000      17.420119       474.0255 
 269   0.0000      17.487170       475.8501 
 270   0.0000      27.111763       737.7486 
 271   0.0000      30.628615       833.4470 
 272   0.0000      62.343285      1696.4470 
 273   0.0000      62.343286      1696.4471 
 274   0.0000      62.363217      1696.9894 
 275   0.0000      62.363218      1696.9894 
 276   0.0000      62.373500      1697.2692 
 277   0.0000      62.373500      1697.2692 
 278   0.0000      62.426963      1698.7240 
 279   0.0000      62.426963      1698.7240 
 280   0.0000      62.691285      1705.9166 
 281   0.0000      62.716625      1706.6061 

                    ********************************
                    * MULLIKEN POPULATION ANALYSIS *
                    ********************************

--------------------------------------------
MULLIKEN ATOMIC CHARGES AND SPIN POPULATIONS
--------------------------------------------
   0 S :   -0.000007    1.000001
   1 S :    0.000007    0.999999
Sum of atomic charges         :   -0.0000000
Sum of atomic spin populations:    2.0000000

-----------------------------------------------------
MULLIKEN REDUCED ORBITAL CHARGES AND SPIN POPULATIONS
-----------------------------------------------------
CHARGE
  0 S s       :     5.937638  s :     5.937638
      pz      :     3.026602  p :     9.884221
      px      :     3.428810
      py      :     3.428810
      dz2     :     0.032666  d :     0.159005
      dxz     :     0.063169
      dyz     :     0.063169
      dx2y2   :     0.000000
      dxy     :     0.000000
      f0      :     0.002732  f :     0.019432
      f+1     :     0.008350
      f-1     :     0.008350
      f+2     :     0.000000
      f-2     :    -0.000000
      f+3     :     0.000000
      f-3     :     0.000000
      g0      :     0.000298  g :    -0.000069
      g+1     :    -0.000184
      g-1     :    -0.000184
      g+2     :    -0.000000
      g-2     :     0.000000
      g+3     :     0.000000
      g-3     :     0.000000
      g+4     :     0.000000
      g-4     :     0.000000
      h0      :     0.000070  h :    -0.000222
      h+1     :    -0.000146
      h-1     :    -0.000146
      h+2     :     0.000000
      h-2     :    -0.000000
      h+3     :     0.000000
      h-3     :     0.000000
      h+4     :     0.000000
      h-4     :     0.000000
      h+5     :     0.000000
      h-5     :     0.000000
  1 S s       :     5.937625  s :     5.937625
      pz      :     3.026602  p :     9.884222
      px      :     3.428810
      py      :     3.428810
      dz2     :     0.032666  d :     0.159004
      dxz     :     0.063169
      dyz     :     0.063169
      dx2y2   :     0.000000
      dxy     :     0.000000
      f0      :     0.002732  f :     0.019433
      f+1     :     0.008350
      f-1     :     0.008350
      f+2     :    -0.000000
      f-2     :    -0.000000
      f+3     :     0.000000
      f-3     :     0.000000
      g0      :     0.000298  g :    -0.000069
      g+1     :    -0.000184
      g-1     :    -0.000184
      g+2     :     0.000000
      g-2     :     0.000000
      g+3     :     0.000000
      g-3     :     0.000000
      g+4     :     0.000000
      g-4     :     0.000000
      h0      :     0.000070  h :    -0.000222
      h+1     :    -0.000146
      h-1     :    -0.000146
      h+2     :    -0.000000
      h-2     :    -0.000000
      h+3     :     0.000000
      h-3     :     0.000000
      h+4     :     0.000000
      h-4     :    -0.000000
      h+5     :     0.000000
      h-5     :     0.000000

SPIN
  0 S s       :     0.021794  s :     0.021794
      pz      :    -0.023714  p :     0.948665
      px      :     0.486190
      py      :     0.486190
      dz2     :     0.000615  d :     0.032983
      dxz     :     0.016184
      dyz     :     0.016184
      dx2y2   :    -0.000000
      dxy     :     0.000000
      f0      :     0.000648  f :    -0.002240
      f+1     :    -0.001444
      f-1     :    -0.001444
      f+2     :     0.000000
      f-2     :     0.000000
      f+3     :     0.000000
      f-3     :     0.000000
      g0      :     0.000525  g :    -0.001260
      g+1     :    -0.000893
      g-1     :    -0.000893
      g+2     :     0.000000
      g-2     :     0.000000
      g+3     :     0.000000
      g-3     :     0.000000
      g+4     :     0.000000
      g-4     :     0.000000
      h0      :     0.000132  h :     0.000058
      h+1     :    -0.000037
      h-1     :    -0.000037
      h+2     :     0.000000
      h-2     :    -0.000000
      h+3     :     0.000000
      h-3     :     0.000000
      h+4     :     0.000000
      h-4     :    -0.000000
      h+5     :     0.000000
      h-5     :     0.000000
  1 S s       :     0.021794  s :     0.021794
      pz      :    -0.023715  p :     0.948664
      px      :     0.486190
      py      :     0.486190
      dz2     :     0.000615  d :     0.032983
      dxz     :     0.016184
      dyz     :     0.016184
      dx2y2   :    -0.000000
      dxy     :    -0.000000
      f0      :     0.000648  f :    -0.002240
      f+1     :    -0.001444
      f-1     :    -0.001444
      f+2     :     0.000000
      f-2     :    -0.000000
      f+3     :     0.000000
      f-3     :     0.000000
      g0      :     0.000525  g :    -0.001260
      g+1     :    -0.000893
      g-1     :    -0.000893
      g+2     :     0.000000
      g-2     :    -0.000000
      g+3     :     0.000000
      g-3     :     0.000000
      g+4     :     0.000000
      g-4     :     0.000000
      h0      :     0.000132  h :     0.000058
      h+1     :    -0.000037
      h-1     :    -0.000037
      h+2     :    -0.000000
      h-2     :    -0.000000
      h+3     :     0.000000
      h-3     :     0.000000
      h+4     :     0.000000
      h-4     :    -0.000000
      h+5     :     0.000000
      h-5     :     0.000000


                     *******************************
                     * LOEWDIN POPULATION ANALYSIS *
                     *******************************

-------------------------------------------
LOEWDIN ATOMIC CHARGES AND SPIN POPULATIONS
-------------------------------------------
   0 S :   -0.000000    1.000000
   1 S :    0.000000    1.000000

----------------------------------------------------
LOEWDIN REDUCED ORBITAL CHARGES AND SPIN POPULATIONS
----------------------------------------------------
CHARGE
  0 S s       :     5.391403  s :     5.391403
      pz      :     3.198148  p :     9.589847
      px      :     3.195850
      py      :     3.195850
      dz2     :     0.238975  d :     0.561793
      dxz     :     0.161409
      dyz     :     0.161409
      dx2y2   :     0.000000
      dxy     :     0.000000
      f0      :     0.104900  f :     0.265385
      f+1     :     0.080242
      f-1     :     0.080242
      f+2     :     0.000000
      f-2     :     0.000000
      f+3     :     0.000000
      f-3     :     0.000000
      g0      :     0.047811  g :     0.132479
      g+1     :     0.042334
      g-1     :     0.042334
      g+2     :     0.000000
      g-2     :     0.000000
      g+3     :     0.000000
      g-3     :     0.000000
      g+4     :     0.000000
      g-4     :     0.000000
      h0      :     0.018763  h :     0.059093
      h+1     :     0.020165
      h-1     :     0.020165
      h+2     :     0.000000
      h-2     :     0.000000
      h+3     :     0.000000
      h-3     :     0.000000
      h+4     :     0.000000
      h-4     :     0.000000
      h+5     :     0.000000
      h-5     :     0.000000
  1 S s       :     5.391403  s :     5.391403
      pz      :     3.198148  p :     9.589847
      px      :     3.195850
      py      :     3.195850
      dz2     :     0.238975  d :     0.561793
      dxz     :     0.161409
      dyz     :     0.161409
      dx2y2   :     0.000000
      dxy     :     0.000000
      f0      :     0.104900  f :     0.265385
      f+1     :     0.080242
      f-1     :     0.080242
      f+2     :     0.000000
      f-2     :     0.000000
      f+3     :     0.000000
      f-3     :     0.000000
      g0      :     0.047811  g :     0.132479
      g+1     :     0.042334
      g-1     :     0.042334
      g+2     :     0.000000
      g-2     :     0.000000
      g+3     :     0.000000
      g-3     :     0.000000
      g+4     :     0.000000
      g-4     :     0.000000
      h0      :     0.018763  h :     0.059093
      h+1     :     0.020165
      h-1     :     0.020165
      h+2     :     0.000000
      h-2     :     0.000000
      h+3     :     0.000000
      h-3     :     0.000000
      h+4     :     0.000000
      h-4     :     0.000000
      h+5     :     0.000000
      h-5     :     0.000000

SPIN
  0 S s       :     0.003186  s :     0.003186
      pz      :    -0.004330  p :     0.717039
      px      :     0.360685
      py      :     0.360685
      dz2     :     0.002330  d :     0.130506
      dxz     :     0.064088
      dyz     :     0.064088
      dx2y2   :    -0.000000
      dxy     :     0.000000
      f0      :    -0.000630  f :     0.080731
      f+1     :     0.040680
      f-1     :     0.040680
      f+2     :     0.000000
      f-2     :     0.000000
      f+3     :     0.000000
      f-3     :     0.000000
      g0      :    -0.000201  g :     0.049325
      g+1     :     0.024763
      g-1     :     0.024763
      g+2     :     0.000000
      g-2     :     0.000000
      g+3     :     0.000000
      g-3     :     0.000000
      g+4     :     0.000000
      g-4     :     0.000000
      h0      :    -0.000355  h :     0.019213
      h+1     :     0.009784
      h-1     :     0.009784
      h+2     :     0.000000
      h-2     :     0.000000
      h+3     :     0.000000
      h-3     :     0.000000
      h+4     :     0.000000
      h-4     :     0.000000
      h+5     :     0.000000
      h-5     :     0.000000
  1 S s       :     0.003186  s :     0.003186
      pz      :    -0.004330  p :     0.717039
      px      :     0.360685
      py      :     0.360685
      dz2     :     0.002330  d :     0.130506
      dxz     :     0.064088
      dyz     :     0.064088
      dx2y2   :     0.000000
      dxy     :     0.000000
      f0      :    -0.000630  f :     0.080731
      f+1     :     0.040680
      f-1     :     0.040680
      f+2     :     0.000000
      f-2     :     0.000000
      f+3     :     0.000000
      f-3     :     0.000000
      g0      :    -0.000201  g :     0.049325
      g+1     :     0.024763
      g-1     :     0.024763
      g+2     :     0.000000
      g-2     :     0.000000
      g+3     :     0.000000
      g-3     :     0.000000
      g+4     :     0.000000
      g-4     :     0.000000
      h0      :    -0.000355  h :     0.019213
      h+1     :     0.009784
      h-1     :     0.009784
      h+2     :     0.000000
      h-2     :     0.000000
      h+3     :     0.000000
      h-3     :     0.000000
      h+4     :     0.000000
      h-4     :     0.000000
      h+5     :     0.000000
      h-5     :     0.000000


                      *****************************
                      * MAYER POPULATION ANALYSIS *
                      *****************************

  NA   - Mulliken gross atomic population
  ZA   - Total nuclear charge
  QA   - Mulliken gross atomic charge
  VA   - Mayer's total valence
  BVA  - Mayer's bonded valence
  FA   - Mayer's free valence

  ATOM       NA         ZA         QA         VA         BVA        FA
  0 S     16.0000    16.0000    -0.0000     2.6802     2.1123     0.5679
  1 S     16.0000    16.0000     0.0000     2.6802     2.1123     0.5679

  Mayer bond orders larger than 0.1
B(  0-S ,  1-S ) :   2.1123 

-------
TIMINGS
-------

Total SCF time: 0 days 0 hours 32 min 20 sec 

Total time                  ....    1940.054 sec
Sum of individual times     ....    1939.435 sec  (100.0%)

Fock matrix formation       ....    1933.416 sec  ( 99.7%)
  XC integration            ....      48.060 sec  (  2.5% of F)
    Basis function eval.    ....       4.732 sec  (  9.8% of XC)
    Density eval.           ....       9.815 sec  ( 20.4% of XC)
    XC-Functional eval.     ....       0.708 sec  (  1.5% of XC)
    XC-Potential eval.      ....      32.286 sec  ( 67.2% of XC)
Diagonalization             ....       0.500 sec  (  0.0%)
Density matrix formation    ....       0.015 sec  (  0.0%)
Population analysis         ....       0.058 sec  (  0.0%)
Initial guess               ....       2.807 sec  (  0.1%)
Orbital Transformation      ....       0.000 sec  (  0.0%)
Orbital Orthonormalization  ....       0.000 sec  (  0.0%)
DIIS solution               ....       0.250 sec  (  0.0%)
Grid generation             ....       2.390 sec  (  0.1%)

-------------------------   --------------------
FINAL SINGLE POINT ENERGY      -796.089048536952
-------------------------   --------------------


                            ***************************************
                            *     ORCA property calculations      *
                            ***************************************

                                    ---------------------
                                    Active property flags
                                    ---------------------
   (+) Dipole Moment
   (+) Polarizability


------------------------------------------------------------------------------
                       ORCA ELECTRIC PROPERTIES CALCULATION
------------------------------------------------------------------------------

Dipole Moment Calculation                       ... on
Quadrupole Moment Calculation                   ... off
Polarizability Calculation                      ... Analytic (CP-SCF)
GBWName                                         ... s2_pbe.gbw
Electron density file                           ... s2_pbe.scfp.tmp
The origin for moment calculation is the CENTER OF MASS  = ( 0.000000,  0.000000  1.785035)

-------------
DIPOLE MOMENT
-------------
                                X             Y             Z
Electronic contribution:     -0.00000       0.00000      -0.00000
Nuclear contribution   :      0.00000       0.00000       0.00000
                        -----------------------------------------
Total Dipole Moment    :     -0.00000       0.00000      -0.00000
                        -----------------------------------------
Magnitude (a.u.)       :      0.00000
Magnitude (Debye)      :      0.00000



--------------------
Rotational spectrum 
--------------------
 
Rotational constants in cm-1:     0.000000     0.294651     0.294651 
Rotational constants in MHz :     0.000000  8833.406323  8833.406323 

 Dipole components along the rotational axes: 
x,y,z [a.u.] :    -0.000000     0.000000    -0.000000 
x,y,z [Debye]:    -0.000000     0.000000    -0.000000 

 
Transforming and storing MO dipole integrals   ... done

                ... starting polarizability calculation

Opening the Dipole integral file               ... (s2_pbe.dmo.tmp) done
Reading Dipole-MO integrals                    ... done
Solving CP-SCF equations                       ... 
------------------------------------------------------------------------------
                           ORCA CP-SCF CALCULATION
------------------------------------------------------------------------------

Input orbitals are from        ... s2_pbe.gbw
Input Perturbation             ... s2_pbe.cpv.tmp
Wavefunction output            ... s2_pbe.cpu.tmp
Perturbation mode              ... Real perturbation (singlet)
Solver                         ... POPLE
Max. number of iterations      ... 200
Convergence tolerance          ... 1.000e-06
Integral handling              ... Direct
Number of perturbations        ... 3
Number of operators            ... 2
Orbital ranges used for CP-SCF:
 Operator 0:  Orbitals   0... 16  to  17...281
 Operator 1:  Orbitals   0... 14  to  15...281
DFT calculation                         ... on
Exchange functional (SCF)               ... PBE
Exchange functional (CP-SCF)            ... PBE
   PBE kappa parameter  XKappa (SCF)    ...  0.804000
   PBE kappa parameter  XKappa (CP-SCF) ...  0.804000
   PBE mue parameter   XMuePBE (SCF)    ...  0.219520
   PBE mue parameter   XMuePBE (CP-SCF) ...  0.219520
Correlation functional (SCF)            ... PBE
Correlation functional (CP-SCF)         ... PBE
   PBE beta parameter CBetaPBE (SCF)    ...  0.066725
   PBE beta parameter CBetaPBE (CP-SCF) ...  0.066725
 LDA part of GGA corr.  LDAOpt (SCF)    ... PW91-LDA
 LDA part of GGA corr.  LDAOpt (CP-SCF) ... PW91-LDA
Variables per vector in CP-SCF ... 8510
Number of vectors sought       ... 3
Recalculating density on grid  ... done
Calculating the xc-kernel      ... done
     CP-SCF ITERATION   0: 
     CP-SCF ITERATION   1:      1.062305554026
     CP-SCF ITERATION   2:      0.028090744965
     CP-SCF ITERATION   3:      0.000858494631
     CP-SCF ITERATION   4:      0.000011602994
     CP-SCF ITERATION   5:      0.000000488600
done
Reading CP-SCF coefficients                    ... done
Doing the polarizability tensor   ... done
Cleaning up                                    ... done

-------------------------
THE POLARIZABILITY TENSOR
-------------------------

The raw cartesian tensor (atomic units):
   32.69451      0.00000     -0.00000  
    0.00000     32.69451      0.00000  
   -0.00000      0.00000     59.26364  
diagonalized tensor: 
   32.69451     32.69451     59.26364  

    0.99996     -0.00896     -0.00000  
   -0.00896     -0.99996      0.00000  
    0.00000      0.00000      1.00000  

Isotropic polarizability :  41.55089


Timings for individual modules:

Sum of individual times         ...     3347.900 sec (=  55.798 min)
GTO integral calculation        ...        1.895 sec (=   0.032 min)   0.1 %
SCF iterations                  ...     1940.076 sec (=  32.335 min)  57.9 %
Solution of CP-SCF eqns.        ...     1405.929 sec (=  23.432 min)  42.0 %
                             ****ORCA TERMINATED NORMALLY****
TOTAL RUN TIME: 0 days 0 hours 55 minutes 48 seconds 332 msec
