
                                 *****************
                                 * O   R   C   A *
                                 *****************

           --- An Ab Initio, DFT and Semiempirical electronic structure package ---

                  #######################################################
                  #                        -***-                        #
                  #          Department of theory and spectroscopy      #
                  #               Directorship: Frank Neese             #
                  #        Max Planck Institute fuer Kohlenforschung    #
                  #                Kaiser Wilhelm Platz 1               #
                  #                 D-45470 Muelheim/Ruhr               #
                  #                      Germany                        #
                  #                                                     #
                  #                  All rights reserved                #
                  #                        -***-                        #
                  #######################################################


                         Program Version 4.1.2  - RELEASE  -


 With contributions from (in alphabetic order):
   Daniel Aravena         : Magnetic Properties
   Michael Atanasov       : Ab Initio Ligand Field Theory
   Alexander A. Auer      : GIAO ZORA
   Ute Becker             : Parallelization
   Giovanni Bistoni       : ED, Open-shell LED
   Martin Brehm           : Molecular dynamics
   Dmytro Bykov           : SCF Hessian
   Vijay G. Chilkuri      : MRCI spin determinant printing
   Dipayan Datta          : RHF DLPNO-CCSD density
   Achintya Kumar Dutta   : EOM-CC, STEOM-CC
   Dmitry Ganyushin       : Spin-Orbit,Spin-Spin,Magnetic field MRCI
   Miquel Garcia          : C-PCM Hessian
   Yang Guo               : DLPNO-NEVPT2, CIM, IAO-localization
   Andreas Hansen         : Spin unrestricted coupled pair/coupled cluster methods
   Benjamin Helmich-Paris : CASSCF linear response (MC-RPA)
   Lee Huntington         : MR-EOM, pCC
   Robert Izsak           : Overlap fitted RIJCOSX, COSX-SCS-MP3, EOM
   Christian Kollmar      : KDIIS, OOCD, Brueckner-CCSD(T), CCSD density
   Simone Kossmann        : Meta GGA functionals, TD-DFT gradient, OOMP2, MP2 Hessian
   Martin Krupicka        : AUTO-CI
   Lucas Lang             : DCDCAS
   Dagmar Lenk            : GEPOL surface, SMD
   Dimitrios Liakos       : Extrapolation schemes; parallel MDCI
   Dimitrios Manganas     : ROCIS; embedding schemes
   Dimitrios Pantazis     : SARC Basis sets
   Taras Petrenko         : DFT Hessian,TD-DFT gradient, ASA, ECA, R-Raman, ABS, FL, XAS/XES, NRVS
   Peter Pinski           : DLPNO-MP2, DLPNO-MP2 Gradient
   Christoph Reimann      : Effective Core Potentials
   Marius Retegan         : Local ZFS, SOC
   Christoph Riplinger    : Optimizer, TS searches, QM/MM, DLPNO-CCSD(T), (RO)-DLPNO pert. Triples
   Tobias Risthaus        : Range-separated hybrids, TD-DFT gradient, RPA, STAB
   Michael Roemelt        : Restricted open shell CIS
   Masaaki Saitow         : Open-shell DLPNO
   Barbara Sandhoefer     : DKH picture change effects
   Avijit Sen             : IP-ROCIS
   Kantharuban Sivalingam : CASSCF convergence, NEVPT2, FIC-MRCI
   Bernardo de Souza      : ESD, SOC TD-DFT
   Georgi Stoychev        : AutoAux, RI-MP2 NMR
   Willem Van den Heuvel  : Paramagnetic NMR
   Boris Wezisla          : Elementary symmetry handling
   Frank Wennmohs         : Technical directorship


 We gratefully acknowledge several colleagues who have allowed us to
 interface, adapt or use parts of their codes:
   Stefan Grimme, W. Hujo, H. Kruse,             : VdW corrections, initial TS optimization,
                  C. Bannwarth                     DFT functionals, gCP, sTDA/sTD-DF
   Ed Valeev                                     : LibInt (2-el integral package), F12 methods
   Garnet Chan, S. Sharma, J. Yang, R. Olivares  : DMRG
   Ulf Ekstrom                                   : XCFun DFT Library
   Mihaly Kallay                                 : mrcc  (arbitrary order and MRCC methods)
   Andreas Klamt, Michael Diedenhofen            : otool_cosmo (COSMO solvation model)
   Jiri Pittner, Ondrej Demel                    : Mk-CCSD
   Frank Weinhold                                : gennbo (NPA and NBO analysis)
   Christopher J. Cramer and Donald G. Truhlar   : smd solvation model
   Lars Goerigk                                  : TD-DFT with DH, B97 family of functionals
   V. Asgeirsson, H. Jonsson                     : NEB implementation
   FAccTs GmbH                                   : IRC, NEB, NEB-TS, Multilevel


 Your calculation uses the libint2 library for the computation of 2-el integrals
 For citations please refer to: http://libint.valeyev.net

 This ORCA versions uses:
   CBLAS   interface :  Fast vector & matrix operations
   LAPACKE interface :  Fast linear algebra routines
   SCALAPACK package :  Parallel linear algebra routines


----- Orbital basis set information -----
Your calculation utilizes the basis: aug-pc-4
   H, C-F              : F. Jensen, J. Chem. Phys. 115, 9113 (2001).
                         F. Jensen, J. Chem. Phys. 116, 7372 (2002).
                         F. Jensen, J. Chem. Phys. 117, 9234 (2002).
   Si-Cl               : F. Jensen, T. Helgaker, J. Chem. Phys. 121, 3463 (2004).
   He-B, Ne-Mg, Al, Ar : F. Jensen, J. Phys. Chem. A 111, 11198 (2007).
   K, Ca, Ga-Kr        : F. Jensen, J. Chem. Phys. 136, 094110 (2012).
   Sc-Zn               : F. Jensen, J. Chem. Phys. 138, 014107 (2013).

================================================================================
                                        WARNINGS
                       Please study these warnings very carefully!
================================================================================


INFO   : the flag for use of LIBINT has been found!

================================================================================
                                       INPUT FILE
================================================================================
NAME = s2h2_pbe.inp
|  1> !uks pbe nori aug-pc-4 grid7 nofinalgrid verytightscf
|  2> 
|  3> %maxcore 1500
|  4> 
|  5> %pal nprocs 4 end
|  6> 
|  7> %scf
|  8> 	maxiter 200
|  9> end
| 10> %elprop
| 11> 	dipole true
| 12> 	 polar 1
| 13> 	 maxiter 200
| 14> end
| 15> 
| 16> * xyz 0 1
| 17> S 0.0000 1.0282 -0.0552
| 18> S 0.0000 -1.0282 -0.0552
| 19> H 0.9425 1.2122 0.8824
| 20> H -0.9425 -1.2122 0.8824
| 21> *
| 22> 
| 23>                          ****END OF INPUT****
================================================================================

                       ****************************
                       * Single Point Calculation *
                       ****************************

---------------------------------
CARTESIAN COORDINATES (ANGSTROEM)
---------------------------------
  S      0.000000    1.028200   -0.055200
  S      0.000000   -1.028200   -0.055200
  H      0.942500    1.212200    0.882400
  H     -0.942500   -1.212200    0.882400

----------------------------
CARTESIAN COORDINATES (A.U.)
----------------------------
  NO LB      ZA    FRAG     MASS         X           Y           Z
   0 S    16.0000    0    32.060    0.000000    1.943016   -0.104313
   1 S    16.0000    0    32.060    0.000000   -1.943016   -0.104313
   2 H     1.0000    0     1.008    1.781067    2.290726    1.667494
   3 H     1.0000    0     1.008   -1.781067   -2.290726    1.667494

--------------------------------
INTERNAL COORDINATES (ANGSTROEM)
--------------------------------
 S      0   0   0     0.000000000000     0.00000000     0.00000000
 S      1   0   0     2.056400000000     0.00000000     0.00000000
 H      1   2   0     1.342108792163    97.87993603     0.00000000
 H      2   1   3     1.342108792163    97.87993603    90.29865293

---------------------------
INTERNAL COORDINATES (A.U.)
---------------------------
 S      0   0   0     0.000000000000     0.00000000     0.00000000
 S      1   0   0     3.886032821796     0.00000000     0.00000000
 H      1   2   0     2.536218059115    97.87993603     0.00000000
 H      2   1   3     2.536218059115    97.87993603    90.29865293

---------------------
BASIS SET INFORMATION
---------------------
There are 2 groups of distinct atoms

 Group   1 Type S   : 44s27p7d4f3g2h contracted to 8s7p7d4f3g2h pattern {15121211111/111111111/1111111/1111/111/11}
 Group   2 Type H   : 12s7p4d3f2g contracted to 8s7p4d3f2g pattern {51111111/1111111/1111/111/11}

Atom   0S    basis set group =>   1
Atom   1S    basis set group =>   1
Atom   2H    basis set group =>   2
Atom   3H    basis set group =>   2


           ************************************************************
           *        Program running with 4 parallel MPI-processes     *
           *              working on a common directory               *
           ************************************************************
------------------------------------------------------------------------------
                           ORCA GTO INTEGRAL CALCULATION
------------------------------------------------------------------------------

                         BASIS SET STATISTICS AND STARTUP INFO

 # of primitive gaussian shells          ...  230
 # of primitive gaussian functions       ...  658
 # of contracted shells                  ...  110
 # of contracted basis functions         ...  458
 Highest angular momentum                ...    5
 Maximum contraction depth               ...   15
 Integral package used                   ... LIBINT
 Integral threshhold            Thresh   ...  1.000e-12
 Primitive cut-off              TCut     ...  1.000e-14


------------------------------ INTEGRAL EVALUATION ----------------------------


 * One electron integrals 
 Pre-screening matrix                    ... done
 Shell pair data                         ... done (   0.004 sec)



           ************************************************************
           *        Program running with 4 parallel MPI-processes     *
           *              working on a common directory               *
           ************************************************************
-------------------------------------------------------------------------------
                                 ORCA SCF
-------------------------------------------------------------------------------

------------
SCF SETTINGS
------------
Hamiltonian:
 Density Functional     Method          .... DFT(GTOs)
 Exchange Functional    Exchange        .... PBE
   PBE kappa parameter   XKappa         ....  0.804000
   PBE mue parameter    XMuePBE         ....  0.219520
 Correlation Functional Correlation     .... PBE
   PBE beta parameter  CBetaPBE         ....  0.066725
 LDA part of GGA corr.  LDAOpt          .... PW91-LDA
 Gradients option       PostSCFGGA      .... off
   Density functional embedding theory  .... OFF
   NL short-range parameter             ....  6.400000


General Settings:
 Integral files         IntName         .... s2h2_pbe
 Hartree-Fock type      HFTyp           .... UHF
 Total Charge           Charge          ....    0
 Multiplicity           Mult            ....    1
 Number of Electrons    NEL             ....   34
 Basis Dimension        Dim             ....  458
 Nuclear Repulsion      ENuc            ....     85.1665614298 Eh

Convergence Acceleration:
 DIIS                   CNVDIIS         .... on
   Start iteration      DIISMaxIt       ....    12
   Startup error        DIISStart       ....  0.200000
   # of expansion vecs  DIISMaxEq       ....     5
   Bias factor          DIISBfac        ....   1.050
   Max. coefficient     DIISMaxC        ....  10.000
 Newton-Raphson         CNVNR           .... off
 SOSCF                  CNVSOSCF        .... off
 Level Shifting         CNVShift        .... on
   Level shift para.    LevelShift      ....    0.2500
   Turn off err/grad.   ShiftErr        ....    0.0010
 Zerner damping         CNVZerner       .... off
 Static damping         CNVDamp         .... on
   Fraction old density DampFac         ....    0.7000
   Max. Damping (<1)    DampMax         ....    0.9800
   Min. Damping (>=0)   DampMin         ....    0.0000
   Turn off err/grad.   DampErr         ....    0.1000
 Fernandez-Rico         CNVRico         .... off

SCF Procedure:
 Maximum # iterations   MaxIter         ....   200
 SCF integral mode      SCFMode         .... Direct
   Integral package                     .... LIBINT
 Reset frequency        DirectResetFreq ....    20
 Integral Threshold     Thresh          ....  1.000e-12 Eh
 Primitive CutOff       TCut            ....  1.000e-14 Eh

Convergence Tolerance:
 Convergence Check Mode ConvCheckMode   .... Total+1el-Energy
 Convergence forced     ConvForced      .... 0
 Energy Change          TolE            ....  1.000e-09 Eh
 1-El. energy change                    ....  1.000e-06 Eh
 DIIS Error             TolErr          ....  1.000e-08


Diagonalization of the overlap matrix:
Smallest eigenvalue                        ... 1.439e-06
Time for diagonalization                   ...    0.341 sec
Threshold for overlap eigenvalues          ... 1.000e-08
Number of eigenvalues below threshold      ... 0
Time for construction of square roots      ...    0.033 sec
Total time needed                          ...    0.375 sec

-------------------
DFT GRID GENERATION
-------------------

General Integration Accuracy     IntAcc      ...  5.670
Radial Grid Type                 RadialGrid  ... Gauss-Chebyshev
Angular Grid (max. acc.)         AngularGrid ... Lebedev-770
Angular grid pruning method      GridPruning ... 3 (G Style)
Weight generation scheme         WeightScheme... Becke
Basis function cutoff            BFCut       ...    1.0000e-12
Integration weight cutoff        WCut        ...    1.0000e-14
Grids for H and He will be reduced by one unit

# of grid points (after initial pruning)     ...  90056 (   0.0 sec)
# of grid points (after weights+screening)   ...  88882 (   0.0 sec)
nearest neighbour list constructed           ...    0.0 sec
Grid point re-assignment to atoms done       ...    0.0 sec
Grid point division into batches done        ...    1.7 sec
Reduced shell lists constructed in    2.0 sec

Total number of grid points                  ...    88882
Total number of batches                      ...     1390
Average number of points per batch           ...       63
Average number of grid points per atom       ...    22220
Average number of shells per batch           ...    81.46 (74.06%)
Average number of basis functions per batch  ...   348.21 (76.03%)
Average number of large shells per batch     ...    72.42 (88.90%)
Average number of large basis fcns per batch ...   311.18 (89.36%)
Maximum spatial batch extension              ...  14.73, 13.53, 14.73 au
Average spatial batch extension              ...   0.48,  0.45,  0.47 au

Time for grid setup =    2.096 sec

------------------------------
INITIAL GUESS: MODEL POTENTIAL
------------------------------
Loading Hartree-Fock densities                     ... done
Calculating cut-offs                               ... done
Setting up the integral package                    ... done
Initializing the effective Hamiltonian             ... done
Starting the Coulomb interaction                   ... done (   0.1 sec)
Reading the grid                                   ... done
Mapping shells                                     ... done
Starting the XC term evaluation                    ... done (   1.8 sec)
  promolecular density results
     # of electrons  =     33.999021254
     EX              =    -50.371744308
     EC              =     -1.292178159
     EX+EC           =    -51.663922467
Transforming the Hamiltonian                       ... done (   0.0 sec)
Diagonalizing the Hamiltonian                      ... done (   0.0 sec)
Back transforming the eigenvectors                 ... done (   0.0 sec)
Now organizing SCF variables                       ... done
                      ------------------
                      INITIAL GUESS DONE (   4.1 sec)
                      ------------------
--------------
SCF ITERATIONS
--------------
ITER       Energy         Delta-E        Max-DP      RMS-DP      [F,P]     Damp
               ***  Starting incremental Fock matrix formation  ***
  0   -797.2898452326   0.000000000000 0.01139595  0.00009502  0.0374769 0.7000
  1   -797.2932929745  -0.003447741880 0.00781947  0.00007777  0.0220382 0.7000
                               ***Turning on DIIS***
  2   -797.2950096368  -0.001716662339 0.01453934  0.00017995  0.0105120 0.0000
  3   -797.2973595662  -0.002349929411 0.00763891  0.00005032  0.0111641 0.0000
  4   -797.2979723873  -0.000612821036 0.00172588  0.00001974  0.0017826 0.0000
  5   -797.2979994297  -0.000027042410 0.00039064  0.00000560  0.0005032 0.0000
  6   -797.2980016634  -0.000002233753 0.00008429  0.00000113  0.0001245 0.0000
  7   -797.2980017750  -0.000000111584 0.00002053  0.00000019  0.0000427 0.0000
  8   -797.2980017813  -0.000000006339 0.00002022  0.00000016  0.0000146 0.0000
  9   -797.2980017821  -0.000000000777 0.00002626  0.00000016  0.0000037 0.0000
 10   -797.2980017822  -0.000000000082 0.00006544  0.00000047  0.0000013 0.0000
 11   -797.2980017822  -0.000000000026 0.00003603  0.00000035  0.0000003 0.0000
 12   -797.2980017822  -0.000000000017 0.00002597  0.00000020  0.0000001 0.0000
                 **** Energy Check signals convergence ****

               *****************************************************
               *                     SUCCESS                       *
               *           SCF CONVERGED AFTER  13 CYCLES          *
               *****************************************************


----------------
TOTAL SCF ENERGY
----------------

Total Energy       :         -797.29800178 Eh          -21695.58161 eV

Components:
Nuclear Repulsion  :           85.16656143 Eh            2317.49996 eV
Electronic Energy  :         -882.46456321 Eh          -24013.08157 eV
One Electron Energy:        -1270.76134109 Eh          -34579.17406 eV
Two Electron Energy:          388.29677788 Eh           10566.09250 eV

Virial components:
Potential Energy   :        -1593.92025279 Eh          -43372.77511 eV
Kinetic Energy     :          796.62225100 Eh           21677.19350 eV
Virial Ratio       :            2.00084827


DFT components:
N(Alpha)           :       17.000000277203 electrons
N(Beta)            :       17.000000277203 electrons
N(Total)           :       34.000000554407 electrons
E(X)               :      -50.469223374748 Eh       
E(C)               :       -1.291360355086 Eh       
E(XC)              :      -51.760583729834 Eh       
DFET-embed. en.    :        0.000000000000 Eh       

---------------
SCF CONVERGENCE
---------------

  Last Energy change         ...    1.3188e-11  Tolerance :   1.0000e-09
  Last MAX-Density change    ...    2.6001e-05  Tolerance :   1.0000e-08
  Last RMS-Density change    ...    2.1305e-07  Tolerance :   1.0000e-09
  Last DIIS Error            ...    3.3753e-08  Tolerance :   1.0000e-08

             **** THE GBW FILE WAS UPDATED (s2h2_pbe.gbw) ****
             **** DENSITY FILE WAS UPDATED (s2h2_pbe.scfp.tmp) ****
             **** ENERGY FILE WAS UPDATED (s2h2_pbe.en.tmp) ****
----------------------
UHF SPIN CONTAMINATION
----------------------

Warning: in a DFT calculation there is little theoretical justification to 
         calculate <S**2> as in Hartree-Fock theory. We will do it anyways
         but you should keep in mind that the values have only limited relevance

Expectation value of <S**2>     :    -0.000000
Ideal value S*(S+1) for S=0.0   :     0.000000
Deviation                       :    -0.000000

----------------
ORBITAL ENERGIES
----------------
                 SPIN UP ORBITALS
  NO   OCC          E(Eh)            E(eV) 
   0   1.0000     -88.063233     -2396.3224 
   1   1.0000     -88.063233     -2396.3224 
   2   1.0000      -7.700755      -209.5482 
   3   1.0000      -7.700709      -209.5469 
   4   1.0000      -5.722974      -155.7300 
   5   1.0000      -5.722743      -155.7237 
   6   1.0000      -5.718263      -155.6019 
   7   1.0000      -5.718224      -155.6008 
   8   1.0000      -5.711183      -155.4092 
   9   1.0000      -5.711183      -155.4092 
  10   1.0000      -0.741811       -20.1857 
  11   1.0000      -0.613137       -16.6843 
  12   1.0000      -0.417382       -11.3575 
  13   1.0000      -0.371213       -10.1012 
  14   1.0000      -0.328208        -8.9310 
  15   1.0000      -0.234479        -6.3805 
  16   1.0000      -0.233555        -6.3554 
  17   0.0000      -0.078800        -2.1443 
  18   0.0000      -0.039934        -1.0867 
  19   0.0000      -0.021706        -0.5907 
  20   0.0000       0.011630         0.3165 
  21   0.0000       0.015090         0.4106 
  22   0.0000       0.015267         0.4154 
  23   0.0000       0.018895         0.5142 
  24   0.0000       0.035586         0.9683 
  25   0.0000       0.035667         0.9705 
  26   0.0000       0.040893         1.1128 
  27   0.0000       0.043539         1.1847 
  28   0.0000       0.043665         1.1882 
  29   0.0000       0.061782         1.6812 
  30   0.0000       0.070272         1.9122 
  31   0.0000       0.079323         2.1585 
  32   0.0000       0.083311         2.2670 
  33   0.0000       0.086632         2.3574 
  34   0.0000       0.087578         2.3831 
  35   0.0000       0.098633         2.6839 
  36   0.0000       0.100081         2.7233 
  37   0.0000       0.110997         3.0204 
  38   0.0000       0.111351         3.0300 
  39   0.0000       0.114878         3.1260 
  40   0.0000       0.122465         3.3324 
  41   0.0000       0.127985         3.4826 
  42   0.0000       0.130116         3.5406 
  43   0.0000       0.135389         3.6841 
  44   0.0000       0.146660         3.9908 
  45   0.0000       0.155186         4.2228 
  46   0.0000       0.160924         4.3790 
  47   0.0000       0.164460         4.4752 
  48   0.0000       0.171974         4.6797 
  49   0.0000       0.178075         4.8457 
  50   0.0000       0.178620         4.8605 
  51   0.0000       0.180920         4.9231 
  52   0.0000       0.184984         5.0337 
  53   0.0000       0.191425         5.2090 
  54   0.0000       0.202146         5.5007 
  55   0.0000       0.212975         5.7954 
  56   0.0000       0.216625         5.8947 
  57   0.0000       0.231136         6.2895 
  58   0.0000       0.238576         6.4920 
  59   0.0000       0.241252         6.5648 
  60   0.0000       0.252928         6.8825 
  61   0.0000       0.255032         6.9398 
  62   0.0000       0.265627         7.2281 
  63   0.0000       0.266332         7.2473 
  64   0.0000       0.269774         7.3409 
  65   0.0000       0.273716         7.4482 
  66   0.0000       0.282695         7.6925 
  67   0.0000       0.283397         7.7116 
  68   0.0000       0.288145         7.8408 
  69   0.0000       0.291290         7.9264 
  70   0.0000       0.293534         7.9875 
  71   0.0000       0.300497         8.1769 
  72   0.0000       0.306190         8.3318 
  73   0.0000       0.310858         8.4589 
  74   0.0000       0.313816         8.5394 
  75   0.0000       0.323657         8.8072 
  76   0.0000       0.324905         8.8411 
  77   0.0000       0.329918         8.9775 
  78   0.0000       0.333745         9.0817 
  79   0.0000       0.335050         9.1172 
  80   0.0000       0.340783         9.2732 
  81   0.0000       0.341752         9.2995 
  82   0.0000       0.359701         9.7880 
  83   0.0000       0.366177         9.9642 
  84   0.0000       0.373977        10.1764 
  85   0.0000       0.400202        10.8900 
  86   0.0000       0.401585        10.9277 
  87   0.0000       0.404634        11.0107 
  88   0.0000       0.409111        11.1325 
  89   0.0000       0.423011        11.5107 
  90   0.0000       0.425226        11.5710 
  91   0.0000       0.431123        11.7315 
  92   0.0000       0.441513        12.0142 
  93   0.0000       0.444169        12.0864 
  94   0.0000       0.450075        12.2472 
  95   0.0000       0.458784        12.4842 
  96   0.0000       0.464681        12.6446 
  97   0.0000       0.469072        12.7641 
  98   0.0000       0.469157        12.7664 
  99   0.0000       0.475552        12.9404 
 100   0.0000       0.488799        13.3009 
 101   0.0000       0.498542        13.5660 
 102   0.0000       0.509879        13.8745 
 103   0.0000       0.516647        14.0587 
 104   0.0000       0.524151        14.2629 
 105   0.0000       0.524796        14.2804 
 106   0.0000       0.533666        14.5218 
 107   0.0000       0.534180        14.5358 
 108   0.0000       0.535687        14.5768 
 109   0.0000       0.537201        14.6180 
 110   0.0000       0.551142        14.9973 
 111   0.0000       0.554128        15.0786 
 112   0.0000       0.554130        15.0786 
 113   0.0000       0.560711        15.2577 
 114   0.0000       0.561594        15.2818 
 115   0.0000       0.570818        15.5327 
 116   0.0000       0.579057        15.7569 
 117   0.0000       0.581920        15.8349 
 118   0.0000       0.587738        15.9932 
 119   0.0000       0.592914        16.1340 
 120   0.0000       0.595713        16.2102 
 121   0.0000       0.609112        16.5748 
 122   0.0000       0.621923        16.9234 
 123   0.0000       0.626249        17.0411 
 124   0.0000       0.628109        17.0917 
 125   0.0000       0.634016        17.2524 
 126   0.0000       0.640808        17.4373 
 127   0.0000       0.642089        17.4721 
 128   0.0000       0.652544        17.7566 
 129   0.0000       0.655317        17.8321 
 130   0.0000       0.665682        18.1141 
 131   0.0000       0.673935        18.3387 
 132   0.0000       0.675117        18.3709 
 133   0.0000       0.682432        18.5699 
 134   0.0000       0.692635        18.8476 
 135   0.0000       0.693519        18.8716 
 136   0.0000       0.700180        19.0529 
 137   0.0000       0.705002        19.1841 
 138   0.0000       0.716914        19.5082 
 139   0.0000       0.728766        19.8307 
 140   0.0000       0.730962        19.8905 
 141   0.0000       0.731918        19.9165 
 142   0.0000       0.746202        20.3052 
 143   0.0000       0.755506        20.5584 
 144   0.0000       0.756797        20.5935 
 145   0.0000       0.769594        20.9417 
 146   0.0000       0.771476        20.9929 
 147   0.0000       0.774940        21.0872 
 148   0.0000       0.788413        21.4538 
 149   0.0000       0.789994        21.4968 
 150   0.0000       0.799728        21.7617 
 151   0.0000       0.821842        22.3634 
 152   0.0000       0.823822        22.4173 
 153   0.0000       0.825623        22.4663 
 154   0.0000       0.834918        22.7193 
 155   0.0000       0.848972        23.1017 
 156   0.0000       0.849529        23.1169 
 157   0.0000       0.859410        23.3857 
 158   0.0000       0.864356        23.5203 
 159   0.0000       0.867564        23.6076 
 160   0.0000       0.874408        23.7938 
 161   0.0000       0.876001        23.8372 
 162   0.0000       0.880075        23.9481 
 163   0.0000       0.891234        24.2517 
 164   0.0000       0.892895        24.2969 
 165   0.0000       0.894231        24.3333 
 166   0.0000       0.898677        24.4542 
 167   0.0000       0.902077        24.5468 
 168   0.0000       0.905885        24.6504 
 169   0.0000       0.906837        24.6763 
 170   0.0000       0.910127        24.7658 
 171   0.0000       0.932583        25.3769 
 172   0.0000       0.941480        25.6190 
 173   0.0000       0.962134        26.1810 
 174   0.0000       0.963994        26.2316 
 175   0.0000       0.973361        26.4865 
 176   0.0000       1.006879        27.3986 
 177   0.0000       1.009030        27.4571 
 178   0.0000       1.023241        27.8438 
 179   0.0000       1.043370        28.3915 
 180   0.0000       1.057856        28.7857 
 181   0.0000       1.062141        28.9023 
 182   0.0000       1.109732        30.1973 
 183   0.0000       1.111119        30.2351 
 184   0.0000       1.155821        31.4515 
 185   0.0000       1.180876        32.1333 
 186   0.0000       1.210072        32.9277 
 187   0.0000       1.211038        32.9540 
 188   0.0000       1.264144        34.3991 
 189   0.0000       1.275417        34.7059 
 190   0.0000       1.279397        34.8141 
 191   0.0000       1.292292        35.1650 
 192   0.0000       1.327516        36.1235 
 193   0.0000       1.340641        36.4807 
 194   0.0000       1.345637        36.6167 
 195   0.0000       1.353277        36.8246 
 196   0.0000       1.372252        37.3409 
 197   0.0000       1.418687        38.6044 
 198   0.0000       1.434233        39.0275 
 199   0.0000       1.443115        39.2691 
 200   0.0000       1.467969        39.9455 
 201   0.0000       1.483067        40.3563 
 202   0.0000       1.483199        40.3599 
 203   0.0000       1.508918        41.0597 
 204   0.0000       1.520116        41.3645 
 205   0.0000       1.521978        41.4151 
 206   0.0000       1.528563        41.5943 
 207   0.0000       1.529570        41.6217 
 208   0.0000       1.567724        42.6599 
 209   0.0000       1.585233        43.1364 
 210   0.0000       1.608397        43.7667 
 211   0.0000       1.609451        43.7954 
 212   0.0000       1.621424        44.1212 
 213   0.0000       1.637938        44.5706 
 214   0.0000       1.739670        47.3388 
 215   0.0000       1.741566        47.3904 
 216   0.0000       1.752983        47.7011 
 217   0.0000       1.814520        49.3756 
 218   0.0000       1.818365        49.4802 
 219   0.0000       1.822940        49.6047 
 220   0.0000       1.847394        50.2702 
 221   0.0000       1.885466        51.3061 
 222   0.0000       1.895728        51.5854 
 223   0.0000       2.008854        54.6637 
 224   0.0000       2.220491        60.4226 
 225   0.0000       2.230018        60.6819 
 226   0.0000       2.250430        61.2373 
 227   0.0000       2.260451        61.5100 
 228   0.0000       2.276619        61.9500 
 229   0.0000       2.284726        62.1705 
 230   0.0000       2.351256        63.9809 
 231   0.0000       2.363326        64.3094 
 232   0.0000       2.375880        64.6510 
 233   0.0000       2.393254        65.1237 
 234   0.0000       2.424278        65.9679 
 235   0.0000       2.434305        66.2408 
 236   0.0000       2.515673        68.4549 
 237   0.0000       2.553525        69.4849 
 238   0.0000       2.586735        70.3887 
 239   0.0000       2.670460        72.6669 
 240   0.0000       2.681426        72.9653 
 241   0.0000       2.696790        73.3834 
 242   0.0000       2.718711        73.9799 
 243   0.0000       2.801735        76.2391 
 244   0.0000       2.805628        76.3450 
 245   0.0000       2.824295        76.8530 
 246   0.0000       2.864432        77.9452 
 247   0.0000       2.917814        79.3978 
 248   0.0000       2.942284        80.0636 
 249   0.0000       3.090912        84.1080 
 250   0.0000       3.098779        84.3221 
 251   0.0000       3.124343        85.0177 
 252   0.0000       3.182579        86.6024 
 253   0.0000       3.202140        87.1346 
 254   0.0000       3.235954        88.0548 
 255   0.0000       3.240613        88.1816 
 256   0.0000       3.261218        88.7423 
 257   0.0000       3.273975        89.0894 
 258   0.0000       3.288287        89.4788 
 259   0.0000       3.302017        89.8525 
 260   0.0000       3.336925        90.8023 
 261   0.0000       3.350993        91.1851 
 262   0.0000       3.400658        92.5366 
 263   0.0000       3.414295        92.9077 
 264   0.0000       3.418435        93.0204 
 265   0.0000       3.439604        93.5964 
 266   0.0000       3.442289        93.6694 
 267   0.0000       3.464963        94.2864 
 268   0.0000       3.486088        94.8613 
 269   0.0000       3.494814        95.0987 
 270   0.0000       3.524623        95.9099 
 271   0.0000       3.543667        96.4281 
 272   0.0000       3.612511        98.3014 
 273   0.0000       3.630654        98.7951 
 274   0.0000       3.633141        98.8628 
 275   0.0000       3.657578        99.5278 
 276   0.0000       3.678995       100.1105 
 277   0.0000       3.694029       100.5196 
 278   0.0000       3.705595       100.8344 
 279   0.0000       3.736856       101.6850 
 280   0.0000       3.758039       102.2615 
 281   0.0000       3.775147       102.7270 
 282   0.0000       3.820244       103.9541 
 283   0.0000       3.825442       104.0956 
 284   0.0000       3.917105       106.5898 
 285   0.0000       3.927820       106.8814 
 286   0.0000       3.942115       107.2704 
 287   0.0000       3.951634       107.5294 
 288   0.0000       3.989913       108.5710 
 289   0.0000       4.029041       109.6358 
 290   0.0000       4.037793       109.8739 
 291   0.0000       4.071595       110.7937 
 292   0.0000       4.111149       111.8701 
 293   0.0000       4.189038       113.9895 
 294   0.0000       4.284778       116.5947 
 295   0.0000       4.340472       118.1102 
 296   0.0000       4.368487       118.8726 
 297   0.0000       4.422310       120.3372 
 298   0.0000       4.427127       120.4683 
 299   0.0000       4.777051       129.9902 
 300   0.0000       4.967510       135.1728 
 301   0.0000       5.041425       137.1842 
 302   0.0000       5.045095       137.2840 
 303   0.0000       5.092455       138.5727 
 304   0.0000       5.106868       138.9650 
 305   0.0000       5.118984       139.2946 
 306   0.0000       5.127379       139.5231 
 307   0.0000       5.185430       141.1027 
 308   0.0000       5.263989       143.2404 
 309   0.0000       5.279145       143.6528 
 310   0.0000       5.304611       144.3458 
 311   0.0000       5.368699       146.0897 
 312   0.0000       5.403721       147.0427 
 313   0.0000       5.462020       148.6291 
 314   0.0000       5.481448       149.1578 
 315   0.0000       5.625009       153.0643 
 316   0.0000       5.638282       153.4255 
 317   0.0000       5.666680       154.1982 
 318   0.0000       5.705812       155.2630 
 319   0.0000       5.768874       156.9790 
 320   0.0000       5.785863       157.4413 
 321   0.0000       5.847796       159.1266 
 322   0.0000       5.881520       160.0443 
 323   0.0000       5.961431       162.2188 
 324   0.0000       6.020065       163.8143 
 325   0.0000       6.072250       165.2343 
 326   0.0000       6.085389       165.5919 
 327   0.0000       6.085825       165.6037 
 328   0.0000       6.173654       167.9937 
 329   0.0000       6.218085       169.2027 
 330   0.0000       6.255465       170.2199 
 331   0.0000       6.403739       174.2546 
 332   0.0000       6.499921       176.8719 
 333   0.0000       6.548228       178.1863 
 334   0.0000       6.628272       180.3645 
 335   0.0000       6.633788       180.5146 
 336   0.0000       6.739428       183.3891 
 337   0.0000       6.883609       187.3125 
 338   0.0000       7.430030       202.1814 
 339   0.0000       7.509393       204.3410 
 340   0.0000       8.183939       222.6963 
 341   0.0000       8.238316       224.1760 
 342   0.0000       8.267305       224.9648 
 343   0.0000       8.278031       225.2567 
 344   0.0000       8.280750       225.3307 
 345   0.0000       8.289561       225.5704 
 346   0.0000       8.377192       227.9550 
 347   0.0000       8.383588       228.1290 
 348   0.0000       8.435910       229.5528 
 349   0.0000       8.479656       230.7432 
 350   0.0000       8.524066       231.9516 
 351   0.0000       8.580265       233.4809 
 352   0.0000       8.613874       234.3954 
 353   0.0000       8.617916       234.5054 
 354   0.0000       8.645971       235.2688 
 355   0.0000       8.655326       235.5234 
 356   0.0000       8.685784       236.3522 
 357   0.0000       8.701670       236.7845 
 358   0.0000       8.809931       239.7304 
 359   0.0000       8.887909       241.8523 
 360   0.0000       8.903178       242.2678 
 361   0.0000       8.929829       242.9930 
 362   0.0000       8.944972       243.4051 
 363   0.0000       9.076221       246.9765 
 364   0.0000       9.142231       248.7728 
 365   0.0000       9.153597       249.0821 
 366   0.0000       9.191460       250.1123 
 367   0.0000       9.201347       250.3814 
 368   0.0000       9.300748       253.0862 
 369   0.0000       9.319307       253.5912 
 370   0.0000       9.511257       258.8145 
 371   0.0000       9.534050       259.4347 
 372   0.0000       9.891535       269.1624 
 373   0.0000       9.928780       270.1758 
 374   0.0000      11.667065       317.4770 
 375   0.0000      11.673044       317.6397 
 376   0.0000      11.676506       317.7339 
 377   0.0000      11.690863       318.1245 
 378   0.0000      11.716741       318.8287 
 379   0.0000      11.723204       319.0046 
 380   0.0000      11.747802       319.6739 
 381   0.0000      11.781702       320.5964 
 382   0.0000      11.814377       321.4856 
 383   0.0000      11.868084       322.9470 
 384   0.0000      12.096458       329.1614 
 385   0.0000      12.098225       329.2094 
 386   0.0000      12.146316       330.5181 
 387   0.0000      12.171604       331.2062 
 388   0.0000      12.236498       332.9720 
 389   0.0000      12.245219       333.2093 
 390   0.0000      12.281525       334.1973 
 391   0.0000      12.303885       334.8057 
 392   0.0000      12.310740       334.9923 
 393   0.0000      12.328325       335.4708 
 394   0.0000      12.534754       341.0880 
 395   0.0000      12.554616       341.6285 
 396   0.0000      12.580870       342.3429 
 397   0.0000      12.620191       343.4129 
 398   0.0000      13.010049       354.0214 
 399   0.0000      13.021634       354.3367 
 400   0.0000      13.075746       355.8091 
 401   0.0000      13.089044       356.1710 
 402   0.0000      13.948618       379.5612 
 403   0.0000      13.953426       379.6920 
 404   0.0000      16.685849       454.0450 
 405   0.0000      16.686178       454.0540 
 406   0.0000      16.686261       454.0563 
 407   0.0000      16.686852       454.0723 
 408   0.0000      16.743530       455.6146 
 409   0.0000      16.748700       455.7553 
 410   0.0000      16.750169       455.7953 
 411   0.0000      16.755895       455.9511 
 412   0.0000      16.794403       456.9989 
 413   0.0000      16.801372       457.1886 
 414   0.0000      16.865823       458.9424 
 415   0.0000      16.867970       459.0008 
 416   0.0000      17.003765       462.6960 
 417   0.0000      17.011055       462.8943 
 418   0.0000      17.101442       465.3539 
 419   0.0000      17.135623       466.2840 
 420   0.0000      17.214216       468.4226 
 421   0.0000      17.218913       468.5504 
 422   0.0000      17.304391       470.8764 
 423   0.0000      17.337540       471.7784 
 424   0.0000      17.533634       477.1144 
 425   0.0000      17.592208       478.7083 
 426   0.0000      18.214064       495.6299 
 427   0.0000      18.230721       496.0832 
 428   0.0000      18.289234       497.6754 
 429   0.0000      18.291058       497.7250 
 430   0.0000      19.366112       526.9787 
 431   0.0000      19.371236       527.1181 
 432   0.0000      23.223640       631.9474 
 433   0.0000      23.248922       632.6353 
 434   0.0000      23.335306       634.9860 
 435   0.0000      23.342245       635.1748 
 436   0.0000      24.112813       656.1430 
 437   0.0000      24.114296       656.1834 
 438   0.0000      31.039104       844.6169 
 439   0.0000      32.309556       879.1877 
 440   0.0000      39.903001      1085.8159 
 441   0.0000      39.911410      1086.0447 
 442   0.0000      62.462276      1699.6849 
 443   0.0000      62.465946      1699.7848 
 444   0.0000      62.497773      1700.6509 
 445   0.0000      62.501095      1700.7413 
 446   0.0000      62.545840      1701.9588 
 447   0.0000      62.559612      1702.3336 
 448   0.0000      62.622170      1704.0359 
 449   0.0000      62.666614      1705.2453 
 450   0.0000      63.178273      1719.1682 
 451   0.0000      63.217108      1720.2250 
 452   0.0000      90.844237      2471.9974 
 453   0.0000      90.862910      2472.5055 
 454   0.0000      90.925799      2474.2168 
 455   0.0000      90.931469      2474.3711 
 456   0.0000      91.497473      2489.7728 
 457   0.0000      91.507781      2490.0533 

                 SPIN DOWN ORBITALS
  NO   OCC          E(Eh)            E(eV) 
   0   1.0000     -88.063233     -2396.3224 
   1   1.0000     -88.063233     -2396.3224 
   2   1.0000      -7.700755      -209.5482 
   3   1.0000      -7.700709      -209.5469 
   4   1.0000      -5.722974      -155.7300 
   5   1.0000      -5.722743      -155.7237 
   6   1.0000      -5.718263      -155.6019 
   7   1.0000      -5.718224      -155.6008 
   8   1.0000      -5.711183      -155.4092 
   9   1.0000      -5.711183      -155.4092 
  10   1.0000      -0.741811       -20.1857 
  11   1.0000      -0.613137       -16.6843 
  12   1.0000      -0.417382       -11.3575 
  13   1.0000      -0.371213       -10.1012 
  14   1.0000      -0.328208        -8.9310 
  15   1.0000      -0.234479        -6.3805 
  16   1.0000      -0.233555        -6.3554 
  17   0.0000      -0.078800        -2.1443 
  18   0.0000      -0.039934        -1.0867 
  19   0.0000      -0.021706        -0.5907 
  20   0.0000       0.011630         0.3165 
  21   0.0000       0.015090         0.4106 
  22   0.0000       0.015267         0.4154 
  23   0.0000       0.018895         0.5142 
  24   0.0000       0.035586         0.9683 
  25   0.0000       0.035667         0.9705 
  26   0.0000       0.040893         1.1128 
  27   0.0000       0.043539         1.1847 
  28   0.0000       0.043665         1.1882 
  29   0.0000       0.061782         1.6812 
  30   0.0000       0.070272         1.9122 
  31   0.0000       0.079323         2.1585 
  32   0.0000       0.083311         2.2670 
  33   0.0000       0.086632         2.3574 
  34   0.0000       0.087578         2.3831 
  35   0.0000       0.098633         2.6839 
  36   0.0000       0.100081         2.7233 
  37   0.0000       0.110997         3.0204 
  38   0.0000       0.111351         3.0300 
  39   0.0000       0.114878         3.1260 
  40   0.0000       0.122465         3.3324 
  41   0.0000       0.127985         3.4826 
  42   0.0000       0.130116         3.5406 
  43   0.0000       0.135389         3.6841 
  44   0.0000       0.146660         3.9908 
  45   0.0000       0.155186         4.2228 
  46   0.0000       0.160924         4.3790 
  47   0.0000       0.164460         4.4752 
  48   0.0000       0.171974         4.6797 
  49   0.0000       0.178075         4.8457 
  50   0.0000       0.178620         4.8605 
  51   0.0000       0.180920         4.9231 
  52   0.0000       0.184984         5.0337 
  53   0.0000       0.191425         5.2090 
  54   0.0000       0.202146         5.5007 
  55   0.0000       0.212975         5.7954 
  56   0.0000       0.216625         5.8947 
  57   0.0000       0.231136         6.2895 
  58   0.0000       0.238576         6.4920 
  59   0.0000       0.241252         6.5648 
  60   0.0000       0.252928         6.8825 
  61   0.0000       0.255032         6.9398 
  62   0.0000       0.265627         7.2281 
  63   0.0000       0.266332         7.2473 
  64   0.0000       0.269774         7.3409 
  65   0.0000       0.273716         7.4482 
  66   0.0000       0.282695         7.6925 
  67   0.0000       0.283397         7.7116 
  68   0.0000       0.288145         7.8408 
  69   0.0000       0.291290         7.9264 
  70   0.0000       0.293534         7.9875 
  71   0.0000       0.300497         8.1769 
  72   0.0000       0.306190         8.3318 
  73   0.0000       0.310858         8.4589 
  74   0.0000       0.313816         8.5394 
  75   0.0000       0.323657         8.8072 
  76   0.0000       0.324905         8.8411 
  77   0.0000       0.329918         8.9775 
  78   0.0000       0.333745         9.0817 
  79   0.0000       0.335050         9.1172 
  80   0.0000       0.340783         9.2732 
  81   0.0000       0.341752         9.2995 
  82   0.0000       0.359701         9.7880 
  83   0.0000       0.366177         9.9642 
  84   0.0000       0.373977        10.1764 
  85   0.0000       0.400202        10.8900 
  86   0.0000       0.401585        10.9277 
  87   0.0000       0.404634        11.0107 
  88   0.0000       0.409111        11.1325 
  89   0.0000       0.423011        11.5107 
  90   0.0000       0.425226        11.5710 
  91   0.0000       0.431123        11.7315 
  92   0.0000       0.441513        12.0142 
  93   0.0000       0.444169        12.0864 
  94   0.0000       0.450075        12.2472 
  95   0.0000       0.458784        12.4842 
  96   0.0000       0.464681        12.6446 
  97   0.0000       0.469072        12.7641 
  98   0.0000       0.469157        12.7664 
  99   0.0000       0.475552        12.9404 
 100   0.0000       0.488799        13.3009 
 101   0.0000       0.498542        13.5660 
 102   0.0000       0.509879        13.8745 
 103   0.0000       0.516647        14.0587 
 104   0.0000       0.524151        14.2629 
 105   0.0000       0.524796        14.2804 
 106   0.0000       0.533666        14.5218 
 107   0.0000       0.534180        14.5358 
 108   0.0000       0.535687        14.5768 
 109   0.0000       0.537201        14.6180 
 110   0.0000       0.551142        14.9973 
 111   0.0000       0.554128        15.0786 
 112   0.0000       0.554130        15.0786 
 113   0.0000       0.560711        15.2577 
 114   0.0000       0.561594        15.2818 
 115   0.0000       0.570818        15.5327 
 116   0.0000       0.579057        15.7569 
 117   0.0000       0.581920        15.8349 
 118   0.0000       0.587738        15.9932 
 119   0.0000       0.592914        16.1340 
 120   0.0000       0.595713        16.2102 
 121   0.0000       0.609112        16.5748 
 122   0.0000       0.621923        16.9234 
 123   0.0000       0.626249        17.0411 
 124   0.0000       0.628109        17.0917 
 125   0.0000       0.634016        17.2524 
 126   0.0000       0.640808        17.4373 
 127   0.0000       0.642089        17.4721 
 128   0.0000       0.652544        17.7566 
 129   0.0000       0.655317        17.8321 
 130   0.0000       0.665682        18.1141 
 131   0.0000       0.673935        18.3387 
 132   0.0000       0.675117        18.3709 
 133   0.0000       0.682432        18.5699 
 134   0.0000       0.692635        18.8476 
 135   0.0000       0.693519        18.8716 
 136   0.0000       0.700180        19.0529 
 137   0.0000       0.705002        19.1841 
 138   0.0000       0.716914        19.5082 
 139   0.0000       0.728766        19.8307 
 140   0.0000       0.730962        19.8905 
 141   0.0000       0.731918        19.9165 
 142   0.0000       0.746202        20.3052 
 143   0.0000       0.755506        20.5584 
 144   0.0000       0.756797        20.5935 
 145   0.0000       0.769594        20.9417 
 146   0.0000       0.771476        20.9929 
 147   0.0000       0.774940        21.0872 
 148   0.0000       0.788413        21.4538 
 149   0.0000       0.789994        21.4968 
 150   0.0000       0.799728        21.7617 
 151   0.0000       0.821842        22.3634 
 152   0.0000       0.823822        22.4173 
 153   0.0000       0.825623        22.4663 
 154   0.0000       0.834918        22.7193 
 155   0.0000       0.848972        23.1017 
 156   0.0000       0.849529        23.1169 
 157   0.0000       0.859410        23.3857 
 158   0.0000       0.864356        23.5203 
 159   0.0000       0.867564        23.6076 
 160   0.0000       0.874408        23.7938 
 161   0.0000       0.876001        23.8372 
 162   0.0000       0.880075        23.9481 
 163   0.0000       0.891234        24.2517 
 164   0.0000       0.892895        24.2969 
 165   0.0000       0.894231        24.3333 
 166   0.0000       0.898677        24.4542 
 167   0.0000       0.902077        24.5468 
 168   0.0000       0.905885        24.6504 
 169   0.0000       0.906837        24.6763 
 170   0.0000       0.910127        24.7658 
 171   0.0000       0.932583        25.3769 
 172   0.0000       0.941480        25.6190 
 173   0.0000       0.962134        26.1810 
 174   0.0000       0.963994        26.2316 
 175   0.0000       0.973361        26.4865 
 176   0.0000       1.006879        27.3986 
 177   0.0000       1.009030        27.4571 
 178   0.0000       1.023241        27.8438 
 179   0.0000       1.043370        28.3915 
 180   0.0000       1.057856        28.7857 
 181   0.0000       1.062141        28.9023 
 182   0.0000       1.109732        30.1973 
 183   0.0000       1.111119        30.2351 
 184   0.0000       1.155821        31.4515 
 185   0.0000       1.180876        32.1333 
 186   0.0000       1.210072        32.9277 
 187   0.0000       1.211038        32.9540 
 188   0.0000       1.264144        34.3991 
 189   0.0000       1.275417        34.7059 
 190   0.0000       1.279397        34.8141 
 191   0.0000       1.292292        35.1650 
 192   0.0000       1.327516        36.1235 
 193   0.0000       1.340641        36.4807 
 194   0.0000       1.345637        36.6167 
 195   0.0000       1.353277        36.8246 
 196   0.0000       1.372252        37.3409 
 197   0.0000       1.418687        38.6044 
 198   0.0000       1.434233        39.0275 
 199   0.0000       1.443115        39.2691 
 200   0.0000       1.467969        39.9455 
 201   0.0000       1.483067        40.3563 
 202   0.0000       1.483199        40.3599 
 203   0.0000       1.508918        41.0597 
 204   0.0000       1.520116        41.3645 
 205   0.0000       1.521978        41.4151 
 206   0.0000       1.528563        41.5943 
 207   0.0000       1.529570        41.6217 
 208   0.0000       1.567724        42.6599 
 209   0.0000       1.585233        43.1364 
 210   0.0000       1.608397        43.7667 
 211   0.0000       1.609451        43.7954 
 212   0.0000       1.621424        44.1212 
 213   0.0000       1.637938        44.5706 
 214   0.0000       1.739670        47.3388 
 215   0.0000       1.741566        47.3904 
 216   0.0000       1.752983        47.7011 
 217   0.0000       1.814520        49.3756 
 218   0.0000       1.818365        49.4802 
 219   0.0000       1.822940        49.6047 
 220   0.0000       1.847394        50.2702 
 221   0.0000       1.885466        51.3061 
 222   0.0000       1.895728        51.5854 
 223   0.0000       2.008854        54.6637 
 224   0.0000       2.220491        60.4226 
 225   0.0000       2.230018        60.6819 
 226   0.0000       2.250430        61.2373 
 227   0.0000       2.260451        61.5100 
 228   0.0000       2.276619        61.9500 
 229   0.0000       2.284726        62.1705 
 230   0.0000       2.351256        63.9809 
 231   0.0000       2.363326        64.3094 
 232   0.0000       2.375880        64.6510 
 233   0.0000       2.393254        65.1237 
 234   0.0000       2.424278        65.9679 
 235   0.0000       2.434305        66.2408 
 236   0.0000       2.515673        68.4549 
 237   0.0000       2.553525        69.4849 
 238   0.0000       2.586735        70.3887 
 239   0.0000       2.670460        72.6669 
 240   0.0000       2.681426        72.9653 
 241   0.0000       2.696790        73.3834 
 242   0.0000       2.718711        73.9799 
 243   0.0000       2.801735        76.2391 
 244   0.0000       2.805628        76.3450 
 245   0.0000       2.824295        76.8530 
 246   0.0000       2.864432        77.9452 
 247   0.0000       2.917814        79.3978 
 248   0.0000       2.942284        80.0636 
 249   0.0000       3.090912        84.1080 
 250   0.0000       3.098779        84.3221 
 251   0.0000       3.124343        85.0177 
 252   0.0000       3.182579        86.6024 
 253   0.0000       3.202140        87.1346 
 254   0.0000       3.235954        88.0548 
 255   0.0000       3.240613        88.1816 
 256   0.0000       3.261218        88.7423 
 257   0.0000       3.273975        89.0894 
 258   0.0000       3.288287        89.4788 
 259   0.0000       3.302017        89.8525 
 260   0.0000       3.336925        90.8023 
 261   0.0000       3.350993        91.1851 
 262   0.0000       3.400658        92.5366 
 263   0.0000       3.414295        92.9077 
 264   0.0000       3.418435        93.0204 
 265   0.0000       3.439604        93.5964 
 266   0.0000       3.442289        93.6694 
 267   0.0000       3.464963        94.2864 
 268   0.0000       3.486088        94.8613 
 269   0.0000       3.494814        95.0987 
 270   0.0000       3.524623        95.9099 
 271   0.0000       3.543667        96.4281 
 272   0.0000       3.612511        98.3014 
 273   0.0000       3.630654        98.7951 
 274   0.0000       3.633141        98.8628 
 275   0.0000       3.657578        99.5278 
 276   0.0000       3.678995       100.1105 
 277   0.0000       3.694029       100.5196 
 278   0.0000       3.705595       100.8344 
 279   0.0000       3.736856       101.6850 
 280   0.0000       3.758039       102.2615 
 281   0.0000       3.775147       102.7270 
 282   0.0000       3.820244       103.9541 
 283   0.0000       3.825442       104.0956 
 284   0.0000       3.917105       106.5898 
 285   0.0000       3.927820       106.8814 
 286   0.0000       3.942115       107.2704 
 287   0.0000       3.951634       107.5294 
 288   0.0000       3.989913       108.5710 
 289   0.0000       4.029041       109.6358 
 290   0.0000       4.037793       109.8739 
 291   0.0000       4.071595       110.7937 
 292   0.0000       4.111149       111.8701 
 293   0.0000       4.189038       113.9895 
 294   0.0000       4.284778       116.5947 
 295   0.0000       4.340472       118.1102 
 296   0.0000       4.368487       118.8726 
 297   0.0000       4.422310       120.3372 
 298   0.0000       4.427127       120.4683 
 299   0.0000       4.777051       129.9902 
 300   0.0000       4.967510       135.1728 
 301   0.0000       5.041425       137.1842 
 302   0.0000       5.045095       137.2840 
 303   0.0000       5.092455       138.5727 
 304   0.0000       5.106868       138.9650 
 305   0.0000       5.118984       139.2946 
 306   0.0000       5.127379       139.5231 
 307   0.0000       5.185430       141.1027 
 308   0.0000       5.263989       143.2404 
 309   0.0000       5.279145       143.6528 
 310   0.0000       5.304611       144.3458 
 311   0.0000       5.368699       146.0897 
 312   0.0000       5.403721       147.0427 
 313   0.0000       5.462020       148.6291 
 314   0.0000       5.481448       149.1578 
 315   0.0000       5.625009       153.0643 
 316   0.0000       5.638282       153.4255 
 317   0.0000       5.666680       154.1982 
 318   0.0000       5.705812       155.2630 
 319   0.0000       5.768874       156.9790 
 320   0.0000       5.785863       157.4413 
 321   0.0000       5.847796       159.1266 
 322   0.0000       5.881520       160.0443 
 323   0.0000       5.961431       162.2188 
 324   0.0000       6.020065       163.8143 
 325   0.0000       6.072250       165.2343 
 326   0.0000       6.085389       165.5919 
 327   0.0000       6.085825       165.6037 
 328   0.0000       6.173654       167.9937 
 329   0.0000       6.218085       169.2027 
 330   0.0000       6.255465       170.2199 
 331   0.0000       6.403739       174.2546 
 332   0.0000       6.499921       176.8719 
 333   0.0000       6.548228       178.1863 
 334   0.0000       6.628272       180.3645 
 335   0.0000       6.633788       180.5146 
 336   0.0000       6.739428       183.3891 
 337   0.0000       6.883609       187.3125 
 338   0.0000       7.430030       202.1814 
 339   0.0000       7.509393       204.3410 
 340   0.0000       8.183939       222.6963 
 341   0.0000       8.238316       224.1760 
 342   0.0000       8.267305       224.9648 
 343   0.0000       8.278031       225.2567 
 344   0.0000       8.280750       225.3307 
 345   0.0000       8.289561       225.5704 
 346   0.0000       8.377192       227.9550 
 347   0.0000       8.383588       228.1290 
 348   0.0000       8.435910       229.5528 
 349   0.0000       8.479656       230.7432 
 350   0.0000       8.524066       231.9516 
 351   0.0000       8.580265       233.4809 
 352   0.0000       8.613874       234.3954 
 353   0.0000       8.617916       234.5054 
 354   0.0000       8.645971       235.2688 
 355   0.0000       8.655326       235.5234 
 356   0.0000       8.685784       236.3522 
 357   0.0000       8.701670       236.7845 
 358   0.0000       8.809931       239.7304 
 359   0.0000       8.887909       241.8523 
 360   0.0000       8.903178       242.2678 
 361   0.0000       8.929829       242.9930 
 362   0.0000       8.944972       243.4051 
 363   0.0000       9.076221       246.9765 
 364   0.0000       9.142231       248.7728 
 365   0.0000       9.153597       249.0821 
 366   0.0000       9.191460       250.1123 
 367   0.0000       9.201347       250.3814 
 368   0.0000       9.300748       253.0862 
 369   0.0000       9.319307       253.5912 
 370   0.0000       9.511257       258.8145 
 371   0.0000       9.534050       259.4347 
 372   0.0000       9.891535       269.1624 
 373   0.0000       9.928780       270.1758 
 374   0.0000      11.667065       317.4770 
 375   0.0000      11.673044       317.6397 
 376   0.0000      11.676506       317.7339 
 377   0.0000      11.690863       318.1245 
 378   0.0000      11.716741       318.8287 
 379   0.0000      11.723204       319.0046 
 380   0.0000      11.747802       319.6739 
 381   0.0000      11.781702       320.5964 
 382   0.0000      11.814377       321.4856 
 383   0.0000      11.868084       322.9470 
 384   0.0000      12.096458       329.1614 
 385   0.0000      12.098225       329.2094 
 386   0.0000      12.146316       330.5181 
 387   0.0000      12.171604       331.2062 
 388   0.0000      12.236498       332.9720 
 389   0.0000      12.245219       333.2093 
 390   0.0000      12.281525       334.1973 
 391   0.0000      12.303885       334.8057 
 392   0.0000      12.310740       334.9923 
 393   0.0000      12.328325       335.4708 
 394   0.0000      12.534754       341.0880 
 395   0.0000      12.554616       341.6285 
 396   0.0000      12.580870       342.3429 
 397   0.0000      12.620191       343.4129 
 398   0.0000      13.010049       354.0214 
 399   0.0000      13.021634       354.3367 
 400   0.0000      13.075746       355.8091 
 401   0.0000      13.089044       356.1710 
 402   0.0000      13.948618       379.5612 
 403   0.0000      13.953426       379.6920 
 404   0.0000      16.685849       454.0450 
 405   0.0000      16.686178       454.0540 
 406   0.0000      16.686261       454.0563 
 407   0.0000      16.686852       454.0723 
 408   0.0000      16.743530       455.6146 
 409   0.0000      16.748700       455.7553 
 410   0.0000      16.750169       455.7953 
 411   0.0000      16.755895       455.9511 
 412   0.0000      16.794403       456.9989 
 413   0.0000      16.801372       457.1886 
 414   0.0000      16.865823       458.9424 
 415   0.0000      16.867970       459.0008 
 416   0.0000      17.003765       462.6960 
 417   0.0000      17.011055       462.8943 
 418   0.0000      17.101442       465.3539 
 419   0.0000      17.135623       466.2840 
 420   0.0000      17.214216       468.4226 
 421   0.0000      17.218913       468.5504 
 422   0.0000      17.304391       470.8764 
 423   0.0000      17.337540       471.7784 
 424   0.0000      17.533634       477.1144 
 425   0.0000      17.592208       478.7083 
 426   0.0000      18.214064       495.6299 
 427   0.0000      18.230721       496.0832 
 428   0.0000      18.289234       497.6754 
 429   0.0000      18.291058       497.7250 
 430   0.0000      19.366112       526.9787 
 431   0.0000      19.371236       527.1181 
 432   0.0000      23.223640       631.9474 
 433   0.0000      23.248922       632.6353 
 434   0.0000      23.335306       634.9860 
 435   0.0000      23.342245       635.1748 
 436   0.0000      24.112813       656.1430 
 437   0.0000      24.114296       656.1834 
 438   0.0000      31.039104       844.6169 
 439   0.0000      32.309556       879.1877 
 440   0.0000      39.903001      1085.8159 
 441   0.0000      39.911410      1086.0447 
 442   0.0000      62.462276      1699.6849 
 443   0.0000      62.465946      1699.7848 
 444   0.0000      62.497773      1700.6509 
 445   0.0000      62.501095      1700.7413 
 446   0.0000      62.545840      1701.9588 
 447   0.0000      62.559612      1702.3336 
 448   0.0000      62.622170      1704.0359 
 449   0.0000      62.666614      1705.2453 
 450   0.0000      63.178273      1719.1682 
 451   0.0000      63.217108      1720.2250 
 452   0.0000      90.844237      2471.9974 
 453   0.0000      90.862910      2472.5055 
 454   0.0000      90.925799      2474.2168 
 455   0.0000      90.931469      2474.3711 
 456   0.0000      91.497473      2489.7728 
 457   0.0000      91.507781      2490.0533 

                    ********************************
                    * MULLIKEN POPULATION ANALYSIS *
                    ********************************

--------------------------------------------
MULLIKEN ATOMIC CHARGES AND SPIN POPULATIONS
--------------------------------------------
   0 S :   -0.082346   -0.000000
   1 S :   -0.082329    0.000000
   2 H :    0.082326    0.000000
   3 H :    0.082348   -0.000000
Sum of atomic charges         :   -0.0000000
Sum of atomic spin populations:   -0.0000000

-----------------------------------------------------
MULLIKEN REDUCED ORBITAL CHARGES AND SPIN POPULATIONS
-----------------------------------------------------
CHARGE
  0 S s       :     5.879333  s :     5.879333
      pz      :     3.516409  p :    10.027705
      px      :     3.523409
      py      :     2.987888
      dz2     :     0.010796  d :     0.166598
      dxz     :     0.030916
      dyz     :     0.047390
      dx2y2   :     0.030473
      dxy     :     0.047024
      f0      :     0.001396  f :     0.012131
      f+1     :     0.001442
      f-1     :     0.001235
      f+2     :     0.003725
      f-2     :    -0.000120
      f+3     :     0.002685
      f-3     :     0.001767
      g0      :     0.000204  g :    -0.002409
      g+1     :     0.000016
      g-1     :    -0.000423
      g+2     :     0.000402
      g-2     :    -0.000273
      g+3     :    -0.000193
      g-3     :    -0.001051
      g+4     :     0.000010
      g-4     :    -0.001101
      h0      :    -0.000138  h :    -0.001013
      h+1     :    -0.000014
      h-1     :     0.000049
      h+2     :    -0.000205
      h-2     :    -0.000010
      h+3     :    -0.000085
      h-3     :     0.000086
      h+4     :    -0.000234
      h-4     :    -0.000023
      h+5     :    -0.000420
      h-5     :    -0.000018
  1 S s       :     5.879313  s :     5.879313
      pz      :     3.516416  p :    10.027711
      px      :     3.523413
      py      :     2.987882
      dz2     :     0.010795  d :     0.166595
      dxz     :     0.030916
      dyz     :     0.047390
      dx2y2   :     0.030471
      dxy     :     0.047025
      f0      :     0.001396  f :     0.012131
      f+1     :     0.001442
      f-1     :     0.001235
      f+2     :     0.003725
      f-2     :    -0.000120
      f+3     :     0.002686
      f-3     :     0.001767
      g0      :     0.000204  g :    -0.002409
      g+1     :     0.000016
      g-1     :    -0.000424
      g+2     :     0.000402
      g-2     :    -0.000273
      g+3     :    -0.000193
      g-3     :    -0.001051
      g+4     :     0.000010
      g-4     :    -0.001101
      h0      :    -0.000138  h :    -0.001013
      h+1     :    -0.000014
      h-1     :     0.000049
      h+2     :    -0.000205
      h-2     :    -0.000010
      h+3     :    -0.000085
      h-3     :     0.000086
      h+4     :    -0.000234
      h-4     :    -0.000023
      h+5     :    -0.000419
      h-5     :    -0.000018
  2 H s       :     0.834566  s :     0.834566
      pz      :     0.027024  p :     0.072702
      px      :     0.031303
      py      :     0.014374
      dz2     :     0.003933  d :     0.008348
      dxz     :     0.006426
      dyz     :     0.001049
      dx2y2   :    -0.002161
      dxy     :    -0.000899
      f0      :     0.002638  f :     0.002036
      f+1     :    -0.000247
      f-1     :     0.000460
      f+2     :    -0.000792
      f-2     :     0.001389
      f+3     :    -0.000248
      f-3     :    -0.001165
      g0      :     0.000057  g :     0.000022
      g+1     :     0.000290
      g-1     :     0.000027
      g+2     :     0.000107
      g-2     :    -0.000200
      g+3     :     0.000069
      g-3     :    -0.000094
      g+4     :    -0.000197
      g-4     :    -0.000037
  3 H s       :     0.834551  s :     0.834551
      pz      :     0.027025  p :     0.072696
      px      :     0.031300
      py      :     0.014372
      dz2     :     0.003933  d :     0.008346
      dxz     :     0.006425
      dyz     :     0.001049
      dx2y2   :    -0.002162
      dxy     :    -0.000899
      f0      :     0.002638  f :     0.002036
      f+1     :    -0.000247
      f-1     :     0.000460
      f+2     :    -0.000792
      f-2     :     0.001389
      f+3     :    -0.000248
      f-3     :    -0.001165
      g0      :     0.000057  g :     0.000022
      g+1     :     0.000290
      g-1     :     0.000027
      g+2     :     0.000107
      g-2     :    -0.000200
      g+3     :     0.000069
      g-3     :    -0.000094
      g+4     :    -0.000197
      g-4     :    -0.000037

SPIN
  0 S s       :    -0.000000  s :    -0.000000
      pz      :    -0.000000  p :     0.000000
      px      :     0.000000
      py      :    -0.000000
      dz2     :     0.000000  d :     0.000000
      dxz     :     0.000000
      dyz     :    -0.000000
      dx2y2   :     0.000000
      dxy     :     0.000000
      f0      :     0.000000  f :     0.000000
      f+1     :     0.000000
      f-1     :     0.000000
      f+2     :     0.000000
      f-2     :     0.000000
      f+3     :    -0.000000
      f-3     :     0.000000
      g0      :     0.000000  g :     0.000000
      g+1     :     0.000000
      g-1     :     0.000000
      g+2     :     0.000000
      g-2     :     0.000000
      g+3     :     0.000000
      g-3     :     0.000000
      g+4     :     0.000000
      g-4     :     0.000000
      h0      :     0.000000  h :     0.000000
      h+1     :     0.000000
      h-1     :     0.000000
      h+2     :     0.000000
      h-2     :     0.000000
      h+3     :     0.000000
      h-3     :     0.000000
      h+4     :    -0.000000
      h-4     :     0.000000
      h+5     :     0.000000
      h-5     :     0.000000
  1 S s       :     0.000000  s :     0.000000
      pz      :     0.000000  p :     0.000000
      px      :    -0.000000
      py      :     0.000000
      dz2     :    -0.000000  d :     0.000000
      dxz     :     0.000000
      dyz     :     0.000000
      dx2y2   :     0.000000
      dxy     :    -0.000000
      f0      :    -0.000000  f :    -0.000000
      f+1     :    -0.000000
      f-1     :    -0.000000
      f+2     :     0.000000
      f-2     :     0.000000
      f+3     :    -0.000000
      f-3     :    -0.000000
      g0      :     0.000000  g :    -0.000000
      g+1     :    -0.000000
      g-1     :    -0.000000
      g+2     :    -0.000000
      g-2     :    -0.000000
      g+3     :     0.000000
      g-3     :     0.000000
      g+4     :    -0.000000
      g-4     :    -0.000000
      h0      :     0.000000  h :    -0.000000
      h+1     :    -0.000000
      h-1     :     0.000000
      h+2     :    -0.000000
      h-2     :     0.000000
      h+3     :    -0.000000
      h-3     :    -0.000000
      h+4     :     0.000000
      h-4     :     0.000000
      h+5     :    -0.000000
      h-5     :     0.000000
  2 H s       :     0.000000  s :     0.000000
      pz      :    -0.000000  p :     0.000000
      px      :     0.000000
      py      :    -0.000000
      dz2     :    -0.000000  d :     0.000000
      dxz     :     0.000000
      dyz     :     0.000000
      dx2y2   :     0.000000
      dxy     :    -0.000000
      f0      :     0.000000  f :     0.000000
      f+1     :     0.000000
      f-1     :    -0.000000
      f+2     :     0.000000
      f-2     :    -0.000000
      f+3     :     0.000000
      f-3     :    -0.000000
      g0      :     0.000000  g :    -0.000000
      g+1     :     0.000000
      g-1     :    -0.000000
      g+2     :    -0.000000
      g-2     :    -0.000000
      g+3     :     0.000000
      g-3     :    -0.000000
      g+4     :     0.000000
      g-4     :    -0.000000
  3 H s       :    -0.000000  s :    -0.000000
      pz      :    -0.000000  p :    -0.000000
      px      :    -0.000000
      py      :    -0.000000
      dz2     :     0.000000  d :     0.000000
      dxz     :    -0.000000
      dyz     :     0.000000
      dx2y2   :     0.000000
      dxy     :     0.000000
      f0      :     0.000000  f :     0.000000
      f+1     :     0.000000
      f-1     :     0.000000
      f+2     :     0.000000
      f-2     :     0.000000
      f+3     :    -0.000000
      f-3     :     0.000000
      g0      :    -0.000000  g :     0.000000
      g+1     :     0.000000
      g-1     :     0.000000
      g+2     :     0.000000
      g-2     :     0.000000
      g+3     :    -0.000000
      g-3     :     0.000000
      g+4     :    -0.000000
      g-4     :     0.000000


                     *******************************
                     * LOEWDIN POPULATION ANALYSIS *
                     *******************************

-------------------------------------------
LOEWDIN ATOMIC CHARGES AND SPIN POPULATIONS
-------------------------------------------
   0 S :    1.152152   -0.000000
   1 S :    1.152152    0.000000
   2 H :   -1.152152    0.000000
   3 H :   -1.152152   -0.000000

----------------------------------------------------
LOEWDIN REDUCED ORBITAL CHARGES AND SPIN POPULATIONS
----------------------------------------------------
CHARGE
  0 S s       :     4.913509  s :     4.913509
      pz      :     3.084837  p :     9.019828
      px      :     3.077630
      py      :     2.857361
      dz2     :     0.042104  d :     0.437638
      dxz     :     0.048730
      dyz     :     0.110544
      dx2y2   :     0.126519
      dxy     :     0.109741
      f0      :     0.027028  f :     0.237084
      f+1     :     0.010095
      f-1     :     0.029041
      f+2     :     0.051555
      f-2     :     0.004326
      f+3     :     0.068067
      f-3     :     0.046972
      g0      :     0.005748  g :     0.155531
      g+1     :     0.000852
      g-1     :     0.033811
      g+2     :     0.014266
      g-2     :     0.005076
      g+3     :     0.004852
      g-3     :     0.019875
      g+4     :     0.023494
      g-4     :     0.047557
      h0      :     0.008397  h :     0.084259
      h+1     :     0.000515
      h-1     :     0.004680
      h+2     :     0.013664
      h-2     :     0.000975
      h+3     :     0.003725
      h-3     :     0.005491
      h+4     :     0.007840
      h-4     :     0.003626
      h+5     :     0.024617
      h-5     :     0.010731
  1 S s       :     4.913508  s :     4.913508
      pz      :     3.084837  p :     9.019828
      px      :     3.077630
      py      :     2.857361
      dz2     :     0.042104  d :     0.437638
      dxz     :     0.048730
      dyz     :     0.110544
      dx2y2   :     0.126519
      dxy     :     0.109741
      f0      :     0.027028  f :     0.237084
      f+1     :     0.010095
      f-1     :     0.029041
      f+2     :     0.051555
      f-2     :     0.004326
      f+3     :     0.068067
      f-3     :     0.046972
      g0      :     0.005748  g :     0.155531
      g+1     :     0.000852
      g-1     :     0.033811
      g+2     :     0.014266
      g-2     :     0.005076
      g+3     :     0.004852
      g-3     :     0.019875
      g+4     :     0.023494
      g-4     :     0.047557
      h0      :     0.008397  h :     0.084259
      h+1     :     0.000515
      h-1     :     0.004680
      h+2     :     0.013664
      h-2     :     0.000975
      h+3     :     0.003725
      h-3     :     0.005491
      h+4     :     0.007840
      h-4     :     0.003626
      h+5     :     0.024617
      h-5     :     0.010731
  2 H s       :     0.779705  s :     0.779705
      pz      :     0.206664  p :     0.521633
      px      :     0.200981
      py      :     0.113988
      dz2     :     0.120374  d :     0.432412
      dxz     :     0.090625
      dyz     :     0.062572
      dx2y2   :     0.092043
      dxy     :     0.066798
      f0      :     0.033014  f :     0.258578
      f+1     :     0.036600
      f-1     :     0.026913
      f+2     :     0.041615
      f-2     :     0.038294
      f+3     :     0.037687
      f-3     :     0.044455
      g0      :     0.014110  g :     0.159824
      g+1     :     0.013920
      g-1     :     0.010266
      g+2     :     0.014766
      g-2     :     0.018447
      g+3     :     0.022920
      g-3     :     0.020416
      g+4     :     0.029740
      g-4     :     0.015240
  3 H s       :     0.779705  s :     0.779705
      pz      :     0.206664  p :     0.521633
      px      :     0.200981
      py      :     0.113988
      dz2     :     0.120374  d :     0.432412
      dxz     :     0.090625
      dyz     :     0.062572
      dx2y2   :     0.092043
      dxy     :     0.066798
      f0      :     0.033014  f :     0.258578
      f+1     :     0.036600
      f-1     :     0.026913
      f+2     :     0.041615
      f-2     :     0.038294
      f+3     :     0.037687
      f-3     :     0.044455
      g0      :     0.014110  g :     0.159824
      g+1     :     0.013920
      g-1     :     0.010266
      g+2     :     0.014766
      g-2     :     0.018447
      g+3     :     0.022920
      g-3     :     0.020416
      g+4     :     0.029740
      g-4     :     0.015240

SPIN
  0 S s       :    -0.000000  s :    -0.000000
      pz      :    -0.000000  p :    -0.000000
      px      :     0.000000
      py      :     0.000000
      dz2     :     0.000000  d :     0.000000
      dxz     :     0.000000
      dyz     :     0.000000
      dx2y2   :     0.000000
      dxy     :    -0.000000
      f0      :     0.000000  f :    -0.000000
      f+1     :     0.000000
      f-1     :     0.000000
      f+2     :    -0.000000
      f-2     :     0.000000
      f+3     :    -0.000000
      f-3     :    -0.000000
      g0      :    -0.000000  g :     0.000000
      g+1     :     0.000000
      g-1     :     0.000000
      g+2     :    -0.000000
      g-2     :     0.000000
      g+3     :     0.000000
      g-3     :    -0.000000
      g+4     :    -0.000000
      g-4     :     0.000000
      h0      :     0.000000  h :     0.000000
      h+1     :    -0.000000
      h-1     :    -0.000000
      h+2     :    -0.000000
      h-2     :    -0.000000
      h+3     :    -0.000000
      h-3     :     0.000000
      h+4     :    -0.000000
      h-4     :     0.000000
      h+5     :    -0.000000
      h-5     :    -0.000000
  1 S s       :     0.000000  s :     0.000000
      pz      :     0.000000  p :     0.000000
      px      :    -0.000000
      py      :     0.000000
      dz2     :     0.000000  d :    -0.000000
      dxz     :    -0.000000
      dyz     :    -0.000000
      dx2y2   :    -0.000000
      dxy     :     0.000000
      f0      :    -0.000000  f :    -0.000000
      f+1     :     0.000000
      f-1     :     0.000000
      f+2     :    -0.000000
      f-2     :     0.000000
      f+3     :    -0.000000
      f-3     :     0.000000
      g0      :     0.000000  g :     0.000000
      g+1     :     0.000000
      g-1     :    -0.000000
      g+2     :    -0.000000
      g-2     :     0.000000
      g+3     :    -0.000000
      g-3     :     0.000000
      g+4     :     0.000000
      g-4     :     0.000000
      h0      :    -0.000000  h :    -0.000000
      h+1     :     0.000000
      h-1     :     0.000000
      h+2     :    -0.000000
      h-2     :     0.000000
      h+3     :     0.000000
      h-3     :    -0.000000
      h+4     :    -0.000000
      h-4     :     0.000000
      h+5     :     0.000000
      h-5     :    -0.000000
  2 H s       :     0.000000  s :     0.000000
      pz      :    -0.000000  p :    -0.000000
      px      :     0.000000
      py      :    -0.000000
      dz2     :     0.000000  d :     0.000000
      dxz     :     0.000000
      dyz     :     0.000000
      dx2y2   :     0.000000
      dxy     :     0.000000
      f0      :    -0.000000  f :    -0.000000
      f+1     :     0.000000
      f-1     :     0.000000
      f+2     :     0.000000
      f-2     :    -0.000000
      f+3     :     0.000000
      f-3     :    -0.000000
      g0      :     0.000000  g :    -0.000000
      g+1     :    -0.000000
      g-1     :    -0.000000
      g+2     :    -0.000000
      g-2     :    -0.000000
      g+3     :     0.000000
      g-3     :     0.000000
      g+4     :    -0.000000
      g-4     :     0.000000
  3 H s       :    -0.000000  s :    -0.000000
      pz      :     0.000000  p :     0.000000
      px      :     0.000000
      py      :     0.000000
      dz2     :     0.000000  d :     0.000000
      dxz     :    -0.000000
      dyz     :     0.000000
      dx2y2   :     0.000000
      dxy     :     0.000000
      f0      :     0.000000  f :    -0.000000
      f+1     :     0.000000
      f-1     :    -0.000000
      f+2     :     0.000000
      f-2     :    -0.000000
      f+3     :    -0.000000
      f-3     :    -0.000000
      g0      :     0.000000  g :     0.000000
      g+1     :     0.000000
      g-1     :     0.000000
      g+2     :     0.000000
      g-2     :     0.000000
      g+3     :    -0.000000
      g-3     :     0.000000
      g+4     :    -0.000000
      g-4     :    -0.000000


                      *****************************
                      * MAYER POPULATION ANALYSIS *
                      *****************************

  NA   - Mulliken gross atomic population
  ZA   - Total nuclear charge
  QA   - Mulliken gross atomic charge
  VA   - Mayer's total valence
  BVA  - Mayer's bonded valence
  FA   - Mayer's free valence

  ATOM       NA         ZA         QA         VA         BVA        FA
  0 S     16.0823    16.0000    -0.0823     2.2630     2.2630    -0.0000
  1 S     16.0823    16.0000    -0.0823     2.2630     2.2630    -0.0000
  2 H      0.9177     1.0000     0.0823     1.0625     1.0625    -0.0000
  3 H      0.9177     1.0000     0.0823     1.0624     1.0624    -0.0000

  Mayer bond orders larger than 0.1
B(  0-S ,  1-S ) :   1.2010 B(  0-S ,  2-H ) :   1.0128 B(  1-S ,  3-H ) :   1.0128 


-------
TIMINGS
-------

Total SCF time: 0 days 0 hours 31 min 34 sec 

Total time                  ....    1894.651 sec
Sum of individual times     ....    1893.168 sec  ( 99.9%)

Fock matrix formation       ....    1885.322 sec  ( 99.5%)
  XC integration            ....      45.311 sec  (  2.4% of F)
    Basis function eval.    ....       3.494 sec  (  7.7% of XC)
    Density eval.           ....      11.048 sec  ( 24.4% of XC)
    XC-Functional eval.     ....       0.380 sec  (  0.8% of XC)
    XC-Potential eval.      ....      28.839 sec  ( 63.6% of XC)
Diagonalization             ....       2.235 sec  (  0.1%)
Density matrix formation    ....       0.042 sec  (  0.0%)
Population analysis         ....       0.214 sec  (  0.0%)
Initial guess               ....       2.047 sec  (  0.1%)
Orbital Transformation      ....       0.000 sec  (  0.0%)
Orbital Orthonormalization  ....       0.000 sec  (  0.0%)
DIIS solution               ....       1.212 sec  (  0.1%)
Grid generation             ....       2.096 sec  (  0.1%)

-------------------------   --------------------
FINAL SINGLE POINT ENERGY      -797.298001782231
-------------------------   --------------------


                            ***************************************
                            *     ORCA property calculations      *
                            ***************************************

                                    ---------------------
                                    Active property flags
                                    ---------------------
   (+) Dipole Moment
   (+) Polarizability


------------------------------------------------------------------------------
                       ORCA ELECTRIC PROPERTIES CALCULATION
------------------------------------------------------------------------------

Dipole Moment Calculation                       ... on
Quadrupole Moment Calculation                   ... off
Polarizability Calculation                      ... Analytic (CP-SCF)
GBWName                                         ... s2h2_pbe.gbw
Electron density file                           ... s2h2_pbe.scfp.tmp
The origin for moment calculation is the CENTER OF MASS  = ( 0.000000,  0.000000 -0.050304)

-------------
DIPOLE MOMENT
-------------
                                X             Y             Z
Electronic contribution:     -0.00000      -0.00000      -1.27791
Nuclear contribution   :      0.00000       0.00000       1.70730
                        -----------------------------------------
Total Dipole Moment    :     -0.00000      -0.00000       0.42938
                        -----------------------------------------
Magnitude (a.u.)       :      0.42938
Magnitude (Debye)      :      1.09141



--------------------
Rotational spectrum 
--------------------
 
Rotational constants in cm-1:     4.911601     0.232389     0.232376 
Rotational constants in MHz : 147246.083734  6966.854548  6966.446385 

 Dipole components along the rotational axes: 
x,y,z [a.u.] :     0.000000     0.429385     0.000000 
x,y,z [Debye]:     0.000000     1.091409     0.000000 

 
Transforming and storing MO dipole integrals   ... done

                ... starting polarizability calculation

Opening the Dipole integral file               ... (s2h2_pbe.dmo.tmp) done
Reading Dipole-MO integrals                    ... done
Solving CP-SCF equations                       ... 

           ************************************************************
           *        Program running with 4 parallel MPI-processes     *
           *              working on a common directory               *
           ************************************************************

------------------------------------------------------------------------------
                           ORCA CP-SCF CALCULATION
------------------------------------------------------------------------------

Input orbitals are from        ... s2h2_pbe.gbw
Input Perturbation             ... s2h2_pbe.cpv.tmp
Wavefunction output            ... s2h2_pbe.cpu.tmp
Perturbation mode              ... Real perturbation (singlet)
Solver                         ... POPLE
Max. number of iterations      ... 200
Convergence tolerance          ... 1.000e-06
Integral handling              ... Direct
Number of perturbations        ... 3
Number of operators            ... 2
Orbital ranges used for CP-SCF:
 Operator 0:  Orbitals   0... 16  to  17...457
 Operator 1:  Orbitals   0... 16  to  17...457
DFT calculation                         ... on
Exchange functional (SCF)               ... PBE
Exchange functional (CP-SCF)            ... PBE
   PBE kappa parameter  XKappa (SCF)    ...  0.804000
   PBE kappa parameter  XKappa (CP-SCF) ...  0.804000
   PBE mue parameter   XMuePBE (SCF)    ...  0.219520
   PBE mue parameter   XMuePBE (CP-SCF) ...  0.219520
Correlation functional (SCF)            ... PBE
Correlation functional (CP-SCF)         ... PBE
   PBE beta parameter CBetaPBE (SCF)    ...  0.066725
   PBE beta parameter CBetaPBE (CP-SCF) ...  0.066725
 LDA part of GGA corr.  LDAOpt (SCF)    ... PW91-LDA
 LDA part of GGA corr.  LDAOpt (CP-SCF) ... PW91-LDA
Variables per vector in CP-SCF ... 14994
Number of vectors sought       ... 3
Recalculating density on grid  ... done
Calculating the xc-kernel      ... done
     CP-SCF ITERATION   0: 
     CP-SCF ITERATION   1:      0.682139096002
     CP-SCF ITERATION   2:      0.030641319891
     CP-SCF ITERATION   3:      0.002441376241
     CP-SCF ITERATION   4:      0.000112734147
     CP-SCF ITERATION   5:      0.000003013986
     CP-SCF ITERATION   6:      0.000000797674
done
Reading CP-SCF coefficients                    ... done
Doing the polarizability tensor   ... done
Cleaning up                                    ... done

-------------------------
THE POLARIZABILITY TENSOR
-------------------------

The raw cartesian tensor (atomic units):
   40.14074      2.38545      0.00000  
    2.38545     58.60902      0.00000  
    0.00000      0.00000     39.93646  
diagonalized tensor: 
   39.83760     39.93646     58.91216  

    0.99202      0.00000      0.12607  
   -0.12607     -0.00000      0.99202  
   -0.00000      1.00000      0.00000  

Isotropic polarizability :  46.22874


Timings for individual modules:

Sum of individual times         ...     3415.302 sec (=  56.922 min)
GTO integral calculation        ...       12.729 sec (=   0.212 min)   0.4 %
SCF iterations                  ...     1903.634 sec (=  31.727 min)  55.7 %
Solution of CP-SCF eqns.        ...     1498.939 sec (=  24.982 min)  43.9 %
                             ****ORCA TERMINATED NORMALLY****
TOTAL RUN TIME: 0 days 0 hours 57 minutes 0 seconds 771 msec
