
                                 *****************
                                 * O   R   C   A *
                                 *****************

           --- An Ab Initio, DFT and Semiempirical electronic structure package ---

                  #######################################################
                  #                        -***-                        #
                  #          Department of theory and spectroscopy      #
                  #               Directorship: Frank Neese             #
                  #        Max Planck Institute fuer Kohlenforschung    #
                  #                Kaiser Wilhelm Platz 1               #
                  #                 D-45470 Muelheim/Ruhr               #
                  #                      Germany                        #
                  #                                                     #
                  #                  All rights reserved                #
                  #                        -***-                        #
                  #######################################################


                         Program Version 4.1.2  - RELEASE  -


 With contributions from (in alphabetic order):
   Daniel Aravena         : Magnetic Properties
   Michael Atanasov       : Ab Initio Ligand Field Theory
   Alexander A. Auer      : GIAO ZORA
   Ute Becker             : Parallelization
   Giovanni Bistoni       : ED, Open-shell LED
   Martin Brehm           : Molecular dynamics
   Dmytro Bykov           : SCF Hessian
   Vijay G. Chilkuri      : MRCI spin determinant printing
   Dipayan Datta          : RHF DLPNO-CCSD density
   Achintya Kumar Dutta   : EOM-CC, STEOM-CC
   Dmitry Ganyushin       : Spin-Orbit,Spin-Spin,Magnetic field MRCI
   Miquel Garcia          : C-PCM Hessian
   Yang Guo               : DLPNO-NEVPT2, CIM, IAO-localization
   Andreas Hansen         : Spin unrestricted coupled pair/coupled cluster methods
   Benjamin Helmich-Paris : CASSCF linear response (MC-RPA)
   Lee Huntington         : MR-EOM, pCC
   Robert Izsak           : Overlap fitted RIJCOSX, COSX-SCS-MP3, EOM
   Christian Kollmar      : KDIIS, OOCD, Brueckner-CCSD(T), CCSD density
   Simone Kossmann        : Meta GGA functionals, TD-DFT gradient, OOMP2, MP2 Hessian
   Martin Krupicka        : AUTO-CI
   Lucas Lang             : DCDCAS
   Dagmar Lenk            : GEPOL surface, SMD
   Dimitrios Liakos       : Extrapolation schemes; parallel MDCI
   Dimitrios Manganas     : ROCIS; embedding schemes
   Dimitrios Pantazis     : SARC Basis sets
   Taras Petrenko         : DFT Hessian,TD-DFT gradient, ASA, ECA, R-Raman, ABS, FL, XAS/XES, NRVS
   Peter Pinski           : DLPNO-MP2, DLPNO-MP2 Gradient
   Christoph Reimann      : Effective Core Potentials
   Marius Retegan         : Local ZFS, SOC
   Christoph Riplinger    : Optimizer, TS searches, QM/MM, DLPNO-CCSD(T), (RO)-DLPNO pert. Triples
   Tobias Risthaus        : Range-separated hybrids, TD-DFT gradient, RPA, STAB
   Michael Roemelt        : Restricted open shell CIS
   Masaaki Saitow         : Open-shell DLPNO
   Barbara Sandhoefer     : DKH picture change effects
   Avijit Sen             : IP-ROCIS
   Kantharuban Sivalingam : CASSCF convergence, NEVPT2, FIC-MRCI
   Bernardo de Souza      : ESD, SOC TD-DFT
   Georgi Stoychev        : AutoAux, RI-MP2 NMR
   Willem Van den Heuvel  : Paramagnetic NMR
   Boris Wezisla          : Elementary symmetry handling
   Frank Wennmohs         : Technical directorship


 We gratefully acknowledge several colleagues who have allowed us to
 interface, adapt or use parts of their codes:
   Stefan Grimme, W. Hujo, H. Kruse,             : VdW corrections, initial TS optimization,
                  C. Bannwarth                     DFT functionals, gCP, sTDA/sTD-DF
   Ed Valeev                                     : LibInt (2-el integral package), F12 methods
   Garnet Chan, S. Sharma, J. Yang, R. Olivares  : DMRG
   Ulf Ekstrom                                   : XCFun DFT Library
   Mihaly Kallay                                 : mrcc  (arbitrary order and MRCC methods)
   Andreas Klamt, Michael Diedenhofen            : otool_cosmo (COSMO solvation model)
   Jiri Pittner, Ondrej Demel                    : Mk-CCSD
   Frank Weinhold                                : gennbo (NPA and NBO analysis)
   Christopher J. Cramer and Donald G. Truhlar   : smd solvation model
   Lars Goerigk                                  : TD-DFT with DH, B97 family of functionals
   V. Asgeirsson, H. Jonsson                     : NEB implementation
   FAccTs GmbH                                   : IRC, NEB, NEB-TS, Multilevel


 Your calculation uses the libint2 library for the computation of 2-el integrals
 For citations please refer to: http://libint.valeyev.net

 This ORCA versions uses:
   CBLAS   interface :  Fast vector & matrix operations
   LAPACKE interface :  Fast linear algebra routines
   SCALAPACK package :  Parallel linear algebra routines


----- Orbital basis set information -----
Your calculation utilizes the basis: aug-pc-4
   H, C-F              : F. Jensen, J. Chem. Phys. 115, 9113 (2001).
                         F. Jensen, J. Chem. Phys. 116, 7372 (2002).
                         F. Jensen, J. Chem. Phys. 117, 9234 (2002).
   Si-Cl               : F. Jensen, T. Helgaker, J. Chem. Phys. 121, 3463 (2004).
   He-B, Ne-Mg, Al, Ar : F. Jensen, J. Phys. Chem. A 111, 11198 (2007).
   K, Ca, Ga-Kr        : F. Jensen, J. Chem. Phys. 136, 094110 (2012).
   Sc-Zn               : F. Jensen, J. Chem. Phys. 138, 014107 (2013).

================================================================================
                                        WARNINGS
                       Please study these warnings very carefully!
================================================================================


INFO   : the flag for use of LIBINT has been found!

================================================================================
                                       INPUT FILE
================================================================================
NAME = scl_pbe.inp
|  1> !uks pbe nori aug-pc-4 grid7 nofinalgrid verytightscf
|  2> 
|  3> %maxcore 1500
|  4> 
|  5> %pal nprocs 1 end
|  6> 
|  7> %scf
|  8> 	maxiter 200
|  9> end
| 10> %elprop
| 11> 	dipole true
| 12> 	 polar 1
| 13> 	 maxiter 200
| 14> end
| 15> 
| 16> * xyz 0 2
| 17> S 0.0000 0.0000 0.0000
| 18> Cl 0.0000 0.0000 1.9753
| 19> *
| 20> 
| 21>                          ****END OF INPUT****
================================================================================

                       ****************************
                       * Single Point Calculation *
                       ****************************

---------------------------------
CARTESIAN COORDINATES (ANGSTROEM)
---------------------------------
  S      0.000000    0.000000    0.000000
  Cl     0.000000    0.000000    1.975300

----------------------------
CARTESIAN COORDINATES (A.U.)
----------------------------
  NO LB      ZA    FRAG     MASS         X           Y           Z
   0 S    16.0000    0    32.060    0.000000    0.000000    0.000000
   1 Cl   17.0000    0    35.453    0.000000    0.000000    3.732776

--------------------------------
INTERNAL COORDINATES (ANGSTROEM)
--------------------------------
 S      0   0   0     0.000000000000     0.00000000     0.00000000
 Cl     1   0   0     1.975300000000     0.00000000     0.00000000

---------------------------
INTERNAL COORDINATES (A.U.)
---------------------------
 S      0   0   0     0.000000000000     0.00000000     0.00000000
 Cl     1   0   0     3.732776032335     0.00000000     0.00000000

---------------------
BASIS SET INFORMATION
---------------------
There are 2 groups of distinct atoms

 Group   1 Type S   : 44s27p7d4f3g2h contracted to 8s7p7d4f3g2h pattern {15121211111/111111111/1111111/1111/111/11}
 Group   2 Type Cl  : 44s27p7d4f3g2h contracted to 8s7p7d4f3g2h pattern {15121211111/111111111/1111111/1111/111/11}

Atom   0S    basis set group =>   1
Atom   1Cl   basis set group =>   2
------------------------------------------------------------------------------
                           ORCA GTO INTEGRAL CALCULATION
------------------------------------------------------------------------------

                         BASIS SET STATISTICS AND STARTUP INFO

 # of primitive gaussian shells          ...  174
 # of primitive gaussian functions       ...  474
 # of contracted shells                  ...   62
 # of contracted basis functions         ...  282
 Highest angular momentum                ...    5
 Maximum contraction depth               ...   15
 Integral package used                   ... LIBINT
 Integral threshhold            Thresh   ...  1.000e-12
 Primitive cut-off              TCut     ...  1.000e-14


------------------------------ INTEGRAL EVALUATION ----------------------------


 * One electron integrals 
 Pre-screening matrix                    ... done
 Shell pair data                         ... done (   0.001 sec)

-------------------------------------------------------------------------------
                                 ORCA SCF
-------------------------------------------------------------------------------

------------
SCF SETTINGS
------------
Hamiltonian:
 Density Functional     Method          .... DFT(GTOs)
 Exchange Functional    Exchange        .... PBE
   PBE kappa parameter   XKappa         ....  0.804000
   PBE mue parameter    XMuePBE         ....  0.219520
 Correlation Functional Correlation     .... PBE
   PBE beta parameter  CBetaPBE         ....  0.066725
 LDA part of GGA corr.  LDAOpt          .... PW91-LDA
 Gradients option       PostSCFGGA      .... off
   Density functional embedding theory  .... OFF
   NL short-range parameter             ....  6.400000


General Settings:
 Integral files         IntName         .... scl_pbe
 Hartree-Fock type      HFTyp           .... UHF
 Total Charge           Charge          ....    0
 Multiplicity           Mult            ....    2
 Number of Electrons    NEL             ....   33
 Basis Dimension        Dim             ....  282
 Nuclear Repulsion      ENuc            ....     72.8680203805 Eh

Convergence Acceleration:
 DIIS                   CNVDIIS         .... on
   Start iteration      DIISMaxIt       ....    12
   Startup error        DIISStart       ....  0.200000
   # of expansion vecs  DIISMaxEq       ....     5
   Bias factor          DIISBfac        ....   1.050
   Max. coefficient     DIISMaxC        ....  10.000
 Newton-Raphson         CNVNR           .... off
 SOSCF                  CNVSOSCF        .... off
 Level Shifting         CNVShift        .... on
   Level shift para.    LevelShift      ....    0.2500
   Turn off err/grad.   ShiftErr        ....    0.0010
 Zerner damping         CNVZerner       .... off
 Static damping         CNVDamp         .... on
   Fraction old density DampFac         ....    0.7000
   Max. Damping (<1)    DampMax         ....    0.9800
   Min. Damping (>=0)   DampMin         ....    0.0000
   Turn off err/grad.   DampErr         ....    0.1000
 Fernandez-Rico         CNVRico         .... off

SCF Procedure:
 Maximum # iterations   MaxIter         ....   200
 SCF integral mode      SCFMode         .... Direct
   Integral package                     .... LIBINT
 Reset frequency        DirectResetFreq ....    20
 Integral Threshold     Thresh          ....  1.000e-12 Eh
 Primitive CutOff       TCut            ....  1.000e-14 Eh

Convergence Tolerance:
 Convergence Check Mode ConvCheckMode   .... Total+1el-Energy
 Convergence forced     ConvForced      .... 0
 Energy Change          TolE            ....  1.000e-09 Eh
 1-El. energy change                    ....  1.000e-06 Eh
 DIIS Error             TolErr          ....  1.000e-08


Diagonalization of the overlap matrix:
Smallest eigenvalue                        ... 1.610e-05
Time for diagonalization                   ...    0.014 sec
Threshold for overlap eigenvalues          ... 1.000e-08
Number of eigenvalues below threshold      ... 0
Time for construction of square roots      ...    0.009 sec
Total time needed                          ...    0.023 sec

-------------------
DFT GRID GENERATION
-------------------

General Integration Accuracy     IntAcc      ...  5.670
Radial Grid Type                 RadialGrid  ... Gauss-Chebyshev
Angular Grid (max. acc.)         AngularGrid ... Lebedev-770
Angular grid pruning method      GridPruning ... 3 (G Style)
Weight generation scheme         WeightScheme... Becke
Basis function cutoff            BFCut       ...    1.0000e-12
Integration weight cutoff        WCut        ...    1.0000e-14
Grids for H and He will be reduced by one unit

# of grid points (after initial pruning)     ...  54540 (   0.0 sec)
# of grid points (after weights+screening)   ...  54394 (   0.0 sec)
nearest neighbour list constructed           ...    0.0 sec
Grid point re-assignment to atoms done       ...    0.0 sec
Grid point division into batches done        ...    1.3 sec
Reduced shell lists constructed in    1.8 sec

Total number of grid points                  ...    54394
Total number of batches                      ...      851
Average number of points per batch           ...       63
Average number of grid points per atom       ...    27197
Average number of shells per batch           ...    46.53 (75.05%)
Average number of basis functions per batch  ...   216.43 (76.75%)
Average number of large shells per batch     ...    41.78 (89.79%)
Average number of large basis fcns per batch ...   194.33 (89.79%)
Maximum spatial batch extension              ...  16.21, 21.56, 20.78 au
Average spatial batch extension              ...   2.64,  2.64,  2.44 au

Time for grid setup =    1.829 sec

------------------------------
INITIAL GUESS: MODEL POTENTIAL
------------------------------
Loading Hartree-Fock densities                     ... done
Calculating cut-offs                               ... done
Setting up the integral package                    ... done
Initializing the effective Hamiltonian             ... done
Starting the Coulomb interaction                   ... done (   0.1 sec)
Reading the grid                                   ... done
Mapping shells                                     ... done
Starting the XC term evaluation                    ... done (   2.1 sec)
  promolecular density results
     # of electrons  =     32.999999018
     EX              =    -52.244000822
     EC              =     -1.277565393
     EX+EC           =    -53.521566216
Transforming the Hamiltonian                       ... done (   0.0 sec)
Diagonalizing the Hamiltonian                      ... done (   0.0 sec)
Back transforming the eigenvectors                 ... done (   0.0 sec)
Now organizing SCF variables                       ... done
                      ------------------
                      INITIAL GUESS DONE (   4.1 sec)
                      ------------------
--------------
SCF ITERATIONS
--------------
ITER       Energy         Delta-E        Max-DP      RMS-DP      [F,P]     Damp
               ***  Starting incremental Fock matrix formation  ***
  0   -858.0459705146   0.000000000000 0.00849137  0.00007840  0.0270161 0.7000
  1   -858.0475359627  -0.001565448080 0.00630378  0.00006165  0.0183657 0.7000
                               ***Turning on DIIS***
  2   -858.0484528504  -0.000916887660 0.01339601  0.00014058  0.0115252 0.0000
  3   -858.0503590858  -0.001906235426 0.00418189  0.00004276  0.0098267 0.0000
  4   -858.0505430710  -0.000183985224 0.00215823  0.00001868  0.0044375 0.0000
  5   -858.0506008931  -0.000057822084 0.00083216  0.00000784  0.0010993 0.0000
  6   -858.0506094020  -0.000008508871 0.00064162  0.00000707  0.0006207 0.0000
  7   -858.0506126331  -0.000003231115 0.00013941  0.00000169  0.0007709 0.0000
  8   -858.0506135526  -0.000000919483 0.00006679  0.00000083  0.0001019 0.0000
  9   -858.0506135832  -0.000000030684 0.00003763  0.00000039  0.0000844 0.0000
 10   -858.0506136049  -0.000000021665 0.00000709  0.00000009  0.0000133 0.0000
 11   -858.0506136056  -0.000000000707 0.00000238  0.00000003  0.0000057 0.0000
 12   -858.0506136057  -0.000000000104 0.00000154  0.00000002  0.0000015 0.0000
 13   -858.0506136057  -0.000000000022 0.00000083  0.00000001  0.0000004 0.0000
                 **** Energy Check signals convergence ****

               *****************************************************
               *                     SUCCESS                       *
               *           SCF CONVERGED AFTER  14 CYCLES          *
               *****************************************************


----------------
TOTAL SCF ENERGY
----------------

Total Energy       :         -858.05061361 Eh          -23348.74422 eV

Components:
Nuclear Repulsion  :           72.86802038 Eh            1982.83964 eV
Electronic Energy  :         -930.91863399 Eh          -25331.58386 eV
One Electron Energy:        -1329.96615687 Eh          -36190.21900 eV
Two Electron Energy:          399.04752288 Eh           10858.63514 eV

Virial components:
Potential Energy   :        -1715.38318873 Eh          -46677.94963 eV
Kinetic Energy     :          857.33257513 Eh           23329.20540 eV
Virial Ratio       :            2.00083753


DFT components:
N(Alpha)           :       16.999999613650 electrons
N(Beta)            :       15.999999610455 electrons
N(Total)           :       32.999999224105 electrons
E(X)               :      -52.266474806963 Eh       
E(C)               :       -1.271339433904 Eh       
E(XC)              :      -53.537814240867 Eh       
DFET-embed. en.    :        0.000000000000 Eh       

---------------
SCF CONVERGENCE
---------------

  Last Energy change         ...    6.3665e-12  Tolerance :   1.0000e-09
  Last MAX-Density change    ...    2.4231e-06  Tolerance :   1.0000e-08
  Last RMS-Density change    ...    1.8937e-08  Tolerance :   1.0000e-09
  Last DIIS Error            ...    2.5399e-07  Tolerance :   1.0000e-08

             **** THE GBW FILE WAS UPDATED (scl_pbe.gbw) ****
             **** DENSITY FILE WAS UPDATED (scl_pbe.scfp.tmp) ****
             **** ENERGY FILE WAS UPDATED (scl_pbe.en.tmp) ****
----------------------
UHF SPIN CONTAMINATION
----------------------

Warning: in a DFT calculation there is little theoretical justification to 
         calculate <S**2> as in Hartree-Fock theory. We will do it anyways
         but you should keep in mind that the values have only limited relevance

Expectation value of <S**2>     :     0.753283
Ideal value S*(S+1) for S=0.5   :     0.750000
Deviation                       :     0.003283

----------------
ORBITAL ENERGIES
----------------
                 SPIN UP ORBITALS
  NO   OCC          E(Eh)            E(eV) 
   0   1.0000    -100.705210     -2740.3281 
   1   1.0000     -88.094799     -2397.1814 
   2   1.0000      -9.226806      -251.0741 
   3   1.0000      -7.728560      -210.3048 
   4   1.0000      -7.049140      -191.8169 
   5   1.0000      -7.042970      -191.6490 
   6   1.0000      -7.037508      -191.5003 
   7   1.0000      -5.751870      -156.5163 
   8   1.0000      -5.751502      -156.5063 
   9   1.0000      -5.735927      -156.0825 
  10   1.0000      -0.831094       -22.6152 
  11   1.0000      -0.627703       -17.0807 
  12   1.0000      -0.404359       -11.0032 
  13   1.0000      -0.369999       -10.0682 
  14   1.0000      -0.350452        -9.5363 
  15   1.0000      -0.255278        -6.9465 
  16   1.0000      -0.221777        -6.0349 
  17   0.0000      -0.106044        -2.8856 
  18   0.0000      -0.012472        -0.3394 
  19   0.0000       0.014825         0.4034 
  20   0.0000       0.016836         0.4581 
  21   0.0000       0.017465         0.4752 
  22   0.0000       0.030185         0.8214 
  23   0.0000       0.044187         1.2024 
  24   0.0000       0.045423         1.2360 
  25   0.0000       0.065165         1.7732 
  26   0.0000       0.065532         1.7832 
  27   0.0000       0.083444         2.2706 
  28   0.0000       0.093009         2.5309 
  29   0.0000       0.100581         2.7369 
  30   0.0000       0.102182         2.7805 
  31   0.0000       0.104680         2.8485 
  32   0.0000       0.111071         3.0224 
  33   0.0000       0.132798         3.6136 
  34   0.0000       0.142219         3.8700 
  35   0.0000       0.143288         3.8991 
  36   0.0000       0.143568         3.9067 
  37   0.0000       0.154903         4.2151 
  38   0.0000       0.158425         4.3110 
  39   0.0000       0.188863         5.1392 
  40   0.0000       0.198656         5.4057 
  41   0.0000       0.215907         5.8751 
  42   0.0000       0.215908         5.8752 
  43   0.0000       0.217570         5.9204 
  44   0.0000       0.219289         5.9672 
  45   0.0000       0.219767         5.9802 
  46   0.0000       0.224486         6.1086 
  47   0.0000       0.227513         6.1910 
  48   0.0000       0.255719         6.9585 
  49   0.0000       0.270137         7.3508 
  50   0.0000       0.270584         7.3630 
  51   0.0000       0.294722         8.0198 
  52   0.0000       0.322545         8.7769 
  53   0.0000       0.322616         8.7788 
  54   0.0000       0.323070         8.7912 
  55   0.0000       0.331322         9.0157 
  56   0.0000       0.333844         9.0844 
  57   0.0000       0.335374         9.1260 
  58   0.0000       0.335374         9.1260 
  59   0.0000       0.391312        10.6481 
  60   0.0000       0.399636        10.8746 
  61   0.0000       0.401497        10.9253 
  62   0.0000       0.401497        10.9253 
  63   0.0000       0.409229        11.1357 
  64   0.0000       0.422513        11.4972 
  65   0.0000       0.430579        11.7166 
  66   0.0000       0.438020        11.9191 
  67   0.0000       0.448704        12.2099 
  68   0.0000       0.449029        12.2187 
  69   0.0000       0.454769        12.3749 
  70   0.0000       0.454803        12.3758 
  71   0.0000       0.476824        12.9750 
  72   0.0000       0.483045        13.1443 
  73   0.0000       0.484853        13.1935 
  74   0.0000       0.496644        13.5144 
  75   0.0000       0.496863        13.5203 
  76   0.0000       0.506143        13.7729 
  77   0.0000       0.513488        13.9727 
  78   0.0000       0.554316        15.0837 
  79   0.0000       0.557334        15.1658 
  80   0.0000       0.557334        15.1658 
  81   0.0000       0.587080        15.9753 
  82   0.0000       0.588591        16.0164 
  83   0.0000       0.588611        16.0169 
  84   0.0000       0.599645        16.3172 
  85   0.0000       0.607962        16.5435 
  86   0.0000       0.620842        16.8940 
  87   0.0000       0.620842        16.8940 
  88   0.0000       0.640776        17.4364 
  89   0.0000       0.648035        17.6339 
  90   0.0000       0.649113        17.6633 
  91   0.0000       0.682040        18.5593 
  92   0.0000       0.682081        18.5604 
  93   0.0000       0.692102        18.8331 
  94   0.0000       0.699802        19.0426 
  95   0.0000       0.703301        19.1378 
  96   0.0000       0.703301        19.1378 
  97   0.0000       0.775326        21.0977 
  98   0.0000       0.776250        21.1228 
  99   0.0000       0.786253        21.3950 
 100   0.0000       0.794592        21.6219 
 101   0.0000       0.795042        21.6342 
 102   0.0000       0.819879        22.3101 
 103   0.0000       0.825070        22.4513 
 104   0.0000       0.831340        22.6219 
 105   0.0000       0.832594        22.6560 
 106   0.0000       0.832594        22.6560 
 107   0.0000       0.853059        23.2129 
 108   0.0000       0.864211        23.5164 
 109   0.0000       0.865383        23.5483 
 110   0.0000       0.869025        23.6474 
 111   0.0000       0.897888        24.4328 
 112   0.0000       0.898069        24.4377 
 113   0.0000       0.935761        25.4634 
 114   0.0000       0.935761        25.4634 
 115   0.0000       0.954734        25.9796 
 116   0.0000       0.980686        26.6858 
 117   0.0000       0.983946        26.7745 
 118   0.0000       0.988658        26.9028 
 119   0.0000       1.002926        27.2910 
 120   0.0000       1.005986        27.3743 
 121   0.0000       1.026939        27.9444 
 122   0.0000       1.042611        28.3709 
 123   0.0000       1.051592        28.6153 
 124   0.0000       1.104351        30.0509 
 125   0.0000       1.255705        34.1695 
 126   0.0000       1.276333        34.7308 
 127   0.0000       1.289944        35.1012 
 128   0.0000       1.289947        35.1012 
 129   0.0000       1.307760        35.5860 
 130   0.0000       1.307769        35.5862 
 131   0.0000       1.319945        35.9175 
 132   0.0000       1.320029        35.9198 
 133   0.0000       1.331082        36.2206 
 134   0.0000       1.442541        39.2535 
 135   0.0000       1.464307        39.8458 
 136   0.0000       1.486997        40.4632 
 137   0.0000       1.580966        43.0203 
 138   0.0000       1.581753        43.0417 
 139   0.0000       1.632939        44.4345 
 140   0.0000       1.644158        44.7398 
 141   0.0000       1.741315        47.3836 
 142   0.0000       1.823016        49.6068 
 143   0.0000       1.827044        49.7164 
 144   0.0000       1.838583        50.0304 
 145   0.0000       1.898268        51.6545 
 146   0.0000       2.047975        55.7282 
 147   0.0000       2.048083        55.7312 
 148   0.0000       2.163659        58.8762 
 149   0.0000       2.180979        59.3474 
 150   0.0000       2.181086        59.3504 
 151   0.0000       2.183509        59.4163 
 152   0.0000       2.271177        61.8019 
 153   0.0000       2.308686        62.8226 
 154   0.0000       2.324737        63.2593 
 155   0.0000       2.446561        66.5743 
 156   0.0000       2.446601        66.5754 
 157   0.0000       2.452368        66.7323 
 158   0.0000       2.452890        66.7465 
 159   0.0000       2.491576        67.7992 
 160   0.0000       2.491593        67.7997 
 161   0.0000       2.621531        71.3355 
 162   0.0000       2.637387        71.7669 
 163   0.0000       2.723532        74.1111 
 164   0.0000       2.825780        76.8934 
 165   0.0000       2.825780        76.8934 
 166   0.0000       2.890854        78.6641 
 167   0.0000       2.890860        78.6643 
 168   0.0000       2.997201        81.5580 
 169   0.0000       3.139907        85.4412 
 170   0.0000       3.169802        86.2547 
 171   0.0000       3.170491        86.2735 
 172   0.0000       3.219440        87.6054 
 173   0.0000       3.219449        87.6057 
 174   0.0000       3.396126        92.4133 
 175   0.0000       3.397247        92.4438 
 176   0.0000       3.420736        93.0830 
 177   0.0000       3.447786        93.8190 
 178   0.0000       3.465087        94.2898 
 179   0.0000       3.472893        94.5022 
 180   0.0000       3.472927        94.5032 
 181   0.0000       3.534852        96.1882 
 182   0.0000       3.605014        98.0974 
 183   0.0000       3.624152        98.6182 
 184   0.0000       3.655864        99.4811 
 185   0.0000       3.656430        99.4965 
 186   0.0000       3.744793       101.9010 
 187   0.0000       3.773691       102.6874 
 188   0.0000       3.946723       107.3958 
 189   0.0000       4.092582       111.3648 
 190   0.0000       4.142814       112.7317 
 191   0.0000       4.158272       113.1523 
 192   0.0000       4.658368       126.7606 
 193   0.0000       4.669744       127.0702 
 194   0.0000       4.852187       132.0347 
 195   0.0000       5.010389       136.3396 
 196   0.0000       5.048536       137.3777 
 197   0.0000       5.048601       137.3794 
 198   0.0000       5.053557       137.5143 
 199   0.0000       5.054793       137.5479 
 200   0.0000       5.113466       139.1445 
 201   0.0000       5.113483       139.1449 
 202   0.0000       5.122710       139.3960 
 203   0.0000       5.122711       139.3961 
 204   0.0000       5.190323       141.2359 
 205   0.0000       5.211971       141.8249 
 206   0.0000       5.363490       145.9480 
 207   0.0000       5.509794       149.9291 
 208   0.0000       5.509794       149.9291 
 209   0.0000       5.641056       153.5009 
 210   0.0000       5.641056       153.5009 
 211   0.0000       5.643221       153.5599 
 212   0.0000       5.643222       153.5599 
 213   0.0000       5.705709       155.2602 
 214   0.0000       5.705763       155.2617 
 215   0.0000       5.728414       155.8781 
 216   0.0000       5.753192       156.5523 
 217   0.0000       5.772197       157.0695 
 218   0.0000       5.772203       157.0696 
 219   0.0000       5.924360       161.2100 
 220   0.0000       5.934770       161.4933 
 221   0.0000       6.171609       167.9380 
 222   0.0000       6.245503       169.9488 
 223   0.0000       6.245766       169.9559 
 224   0.0000       6.665395       181.3746 
 225   0.0000       6.690540       182.0589 
 226   0.0000       6.708772       182.5550 
 227   0.0000       6.888334       187.4411 
 228   0.0000       8.144483       221.6226 
 229   0.0000       8.144485       221.6227 
 230   0.0000       8.170465       222.3297 
 231   0.0000       8.170480       222.3301 
 232   0.0000       8.297098       225.7755 
 233   0.0000       8.297383       225.7833 
 234   0.0000       8.683242       236.2830 
 235   0.0000       8.708041       236.9579 
 236   0.0000       8.878617       241.5994 
 237   0.0000       9.054507       246.3857 
 238   0.0000       9.054507       246.3857 
 239   0.0000       9.076002       246.9706 
 240   0.0000       9.076002       246.9706 
 241   0.0000       9.293070       252.8773 
 242   0.0000       9.293121       252.8787 
 243   0.0000       9.812000       266.9981 
 244   0.0000       9.824557       267.3398 
 245   0.0000       9.871642       268.6210 
 246   0.0000      11.574534       314.9591 
 247   0.0000      11.574563       314.9599 
 248   0.0000      11.656838       317.1987 
 249   0.0000      11.657115       317.2062 
 250   0.0000      11.698106       318.3216 
 251   0.0000      11.715458       318.7938 
 252   0.0000      12.082969       328.7943 
 253   0.0000      12.798836       348.2740 
 254   0.0000      12.798837       348.2741 
 255   0.0000      12.834332       349.2399 
 256   0.0000      12.834379       349.2412 
 257   0.0000      12.953940       352.4946 
 258   0.0000      12.960181       352.6645 
 259   0.0000      13.140094       357.5601 
 260   0.0000      16.809602       457.4125 
 261   0.0000      16.809783       457.4175 
 262   0.0000      16.886515       459.5054 
 263   0.0000      16.901914       459.9245 
 264   0.0000      17.353218       472.2051 
 265   0.0000      17.545926       477.4489 
 266   0.0000      17.545945       477.4494 
 267   0.0000      17.695969       481.5318 
 268   0.0000      17.701594       481.6849 
 269   0.0000      18.138781       493.5813 
 270   0.0000      28.958858       788.0106 
 271   0.0000      38.573056      1049.6262 
 272   0.0000      62.316717      1695.7241 
 273   0.0000      62.316840      1695.7274 
 274   0.0000      62.365198      1697.0433 
 275   0.0000      62.375826      1697.3325 
 276   0.0000      62.638770      1704.4876 
 277   0.0000      65.736978      1788.7941 
 278   0.0000      65.736994      1788.7945 
 279   0.0000      65.827877      1791.2676 
 280   0.0000      65.831630      1791.3697 
 281   0.0000      66.092976      1798.4813 

                 SPIN DOWN ORBITALS
  NO   OCC          E(Eh)            E(eV) 
   0   1.0000    -100.703957     -2740.2940 
   1   1.0000     -88.090861     -2397.0742 
   2   1.0000      -9.225611      -251.0416 
   3   1.0000      -7.724549      -210.1957 
   4   1.0000      -7.048545      -191.8007 
   5   1.0000      -7.039289      -191.5488 
   6   1.0000      -7.036764      -191.4801 
   7   1.0000      -5.749035      -156.4392 
   8   1.0000      -5.740269      -156.2007 
   9   1.0000      -5.733541      -156.0176 
  10   1.0000      -0.822793       -22.3893 
  11   1.0000      -0.603361       -16.4183 
  12   1.0000      -0.393927       -10.7193 
  13   1.0000      -0.347457        -9.4548 
  14   1.0000      -0.346883        -9.4392 
  15   1.0000      -0.212798        -5.7905 
  16   0.0000      -0.203565        -5.5393 
  17   0.0000      -0.095656        -2.6029 
  18   0.0000      -0.008574        -0.2333 
  19   0.0000       0.017954         0.4885 
  20   0.0000       0.019478         0.5300 
  21   0.0000       0.019626         0.5340 
  22   0.0000       0.032363         0.8806 
  23   0.0000       0.045774         1.2456 
  24   0.0000       0.047345         1.2883 
  25   0.0000       0.072533         1.9737 
  26   0.0000       0.073696         2.0054 
  27   0.0000       0.085481         2.3261 
  28   0.0000       0.101922         2.7734 
  29   0.0000       0.104680         2.8485 
  30   0.0000       0.105208         2.8629 
  31   0.0000       0.111959         3.0466 
  32   0.0000       0.112963         3.0739 
  33   0.0000       0.136226         3.7069 
  34   0.0000       0.145755         3.9662 
  35   0.0000       0.147205         4.0056 
  36   0.0000       0.148181         4.0322 
  37   0.0000       0.159260         4.3337 
  38   0.0000       0.160483         4.3670 
  39   0.0000       0.199886         5.4392 
  40   0.0000       0.201532         5.4840 
  41   0.0000       0.220625         6.0035 
  42   0.0000       0.220801         6.0083 
  43   0.0000       0.221063         6.0154 
  44   0.0000       0.228090         6.2066 
  45   0.0000       0.230518         6.2727 
  46   0.0000       0.234437         6.3793 
  47   0.0000       0.236884         6.4459 
  48   0.0000       0.259302         7.0560 
  49   0.0000       0.274429         7.4676 
  50   0.0000       0.275503         7.4968 
  51   0.0000       0.300129         8.1669 
  52   0.0000       0.330452         8.9921 
  53   0.0000       0.331466         9.0197 
  54   0.0000       0.333085         9.0637 
  55   0.0000       0.335357         9.1255 
  56   0.0000       0.338319         9.2061 
  57   0.0000       0.338446         9.2096 
  58   0.0000       0.338456         9.2099 
  59   0.0000       0.400836        10.9073 
  60   0.0000       0.403138        10.9699 
  61   0.0000       0.407657        11.0929 
  62   0.0000       0.407777        11.0962 
  63   0.0000       0.413982        11.2650 
  64   0.0000       0.432247        11.7620 
  65   0.0000       0.435470        11.8497 
  66   0.0000       0.443212        12.0604 
  67   0.0000       0.455045        12.3824 
  68   0.0000       0.456170        12.4130 
  69   0.0000       0.460665        12.5353 
  70   0.0000       0.461003        12.5445 
  71   0.0000       0.486116        13.2279 
  72   0.0000       0.487766        13.2728 
  73   0.0000       0.488614        13.2959 
  74   0.0000       0.508663        13.8414 
  75   0.0000       0.511183        13.9100 
  76   0.0000       0.513958        13.9855 
  77   0.0000       0.514500        14.0003 
  78   0.0000       0.559153        15.2153 
  79   0.0000       0.561095        15.2682 
  80   0.0000       0.561176        15.2704 
  81   0.0000       0.593151        16.1404 
  82   0.0000       0.596924        16.2431 
  83   0.0000       0.597134        16.2488 
  84   0.0000       0.609240        16.5783 
  85   0.0000       0.611823        16.6485 
  86   0.0000       0.627324        17.0704 
  87   0.0000       0.627374        17.0717 
  88   0.0000       0.645488        17.5646 
  89   0.0000       0.652602        17.7582 
  90   0.0000       0.653537        17.7836 
  91   0.0000       0.687046        18.6955 
  92   0.0000       0.687333        18.7033 
  93   0.0000       0.700946        19.0737 
  94   0.0000       0.702179        19.1072 
  95   0.0000       0.708658        19.2836 
  96   0.0000       0.708755        19.2862 
  97   0.0000       0.786513        21.4021 
  98   0.0000       0.787916        21.4403 
  99   0.0000       0.789745        21.4900 
 100   0.0000       0.802935        21.8490 
 101   0.0000       0.803930        21.8761 
 102   0.0000       0.825979        22.4760 
 103   0.0000       0.828537        22.5456 
 104   0.0000       0.833663        22.6851 
 105   0.0000       0.834938        22.7198 
 106   0.0000       0.834952        22.7202 
 107   0.0000       0.869538        23.6613 
 108   0.0000       0.869943        23.6724 
 109   0.0000       0.870485        23.6871 
 110   0.0000       0.871597        23.7174 
 111   0.0000       0.904662        24.6171 
 112   0.0000       0.905574        24.6419 
 113   0.0000       0.938217        25.5302 
 114   0.0000       0.938245        25.5310 
 115   0.0000       0.960095        26.1255 
 116   0.0000       0.989687        26.9308 
 117   0.0000       0.990354        26.9489 
 118   0.0000       0.997666        27.1479 
 119   0.0000       1.016024        27.6474 
 120   0.0000       1.018089        27.7036 
 121   0.0000       1.032965        28.1084 
 122   0.0000       1.052618        28.6432 
 123   0.0000       1.052716        28.6459 
 124   0.0000       1.114178        30.3183 
 125   0.0000       1.279496        34.8169 
 126   0.0000       1.282080        34.8872 
 127   0.0000       1.301013        35.4024 
 128   0.0000       1.301100        35.4047 
 129   0.0000       1.325685        36.0737 
 130   0.0000       1.326212        36.0881 
 131   0.0000       1.336535        36.3690 
 132   0.0000       1.337049        36.3830 
 133   0.0000       1.337385        36.3921 
 134   0.0000       1.468059        39.9479 
 135   0.0000       1.473702        40.1015 
 136   0.0000       1.498434        40.7745 
 137   0.0000       1.598999        43.5110 
 138   0.0000       1.601597        43.5817 
 139   0.0000       1.645778        44.7839 
 140   0.0000       1.646088        44.7923 
 141   0.0000       1.749557        47.6079 
 142   0.0000       1.830785        49.8182 
 143   0.0000       1.839916        50.0666 
 144   0.0000       1.842308        50.1317 
 145   0.0000       1.902279        51.7636 
 146   0.0000       2.063836        56.1598 
 147   0.0000       2.065425        56.2031 
 148   0.0000       2.185798        59.4786 
 149   0.0000       2.186518        59.4982 
 150   0.0000       2.198521        59.8248 
 151   0.0000       2.200711        59.8844 
 152   0.0000       2.283255        62.1305 
 153   0.0000       2.327355        63.3305 
 154   0.0000       2.328168        63.3527 
 155   0.0000       2.468810        67.1797 
 156   0.0000       2.471038        67.2404 
 157   0.0000       2.473082        67.2960 
 158   0.0000       2.473726        67.3135 
 159   0.0000       2.535643        68.9983 
 160   0.0000       2.536053        69.0095 
 161   0.0000       2.638156        71.7879 
 162   0.0000       2.638453        71.7959 
 163   0.0000       2.736133        74.4540 
 164   0.0000       2.836014        77.1719 
 165   0.0000       2.836017        77.1719 
 166   0.0000       2.902890        78.9917 
 167   0.0000       2.903088        78.9970 
 168   0.0000       3.003984        81.7426 
 169   0.0000       3.160910        86.0127 
 170   0.0000       3.184435        86.6529 
 171   0.0000       3.186220        86.7015 
 172   0.0000       3.263396        88.8015 
 173   0.0000       3.264248        88.8247 
 174   0.0000       3.417864        93.0048 
 175   0.0000       3.420125        93.0663 
 176   0.0000       3.449885        93.8761 
 177   0.0000       3.456591        94.0586 
 178   0.0000       3.470442        94.4355 
 179   0.0000       3.485283        94.8394 
 180   0.0000       3.485322        94.8404 
 181   0.0000       3.548967        96.5723 
 182   0.0000       3.625141        98.6451 
 183   0.0000       3.627026        98.6964 
 184   0.0000       3.667545        99.7990 
 185   0.0000       3.668694        99.8302 
 186   0.0000       3.778688       102.8233 
 187   0.0000       3.779546       102.8467 
 188   0.0000       3.950730       107.5048 
 189   0.0000       4.097942       111.5107 
 190   0.0000       4.158710       113.1642 
 191   0.0000       4.159365       113.1821 
 192   0.0000       4.669019       127.0505 
 193   0.0000       4.671343       127.1137 
 194   0.0000       4.863081       132.3312 
 195   0.0000       5.017086       136.5218 
 196   0.0000       5.073223       138.0494 
 197   0.0000       5.075987       138.1246 
 198   0.0000       5.077610       138.1688 
 199   0.0000       5.078142       138.1833 
 200   0.0000       5.153709       140.2395 
 201   0.0000       5.153983       140.2470 
 202   0.0000       5.176118       140.8493 
 203   0.0000       5.176246       140.8528 
 204   0.0000       5.213816       141.8751 
 205   0.0000       5.215631       141.9245 
 206   0.0000       5.368668       146.0889 
 207   0.0000       5.529212       150.4575 
 208   0.0000       5.532529       150.5478 
 209   0.0000       5.652747       153.8191 
 210   0.0000       5.652752       153.8192 
 211   0.0000       5.653885       153.8500 
 212   0.0000       5.653885       153.8500 
 213   0.0000       5.712391       155.4421 
 214   0.0000       5.712869       155.4551 
 215   0.0000       5.756628       156.6458 
 216   0.0000       5.756865       156.6523 
 217   0.0000       5.783486       157.3767 
 218   0.0000       5.783664       157.3815 
 219   0.0000       5.932757       161.4385 
 220   0.0000       5.935170       161.5042 
 221   0.0000       6.189816       168.4335 
 222   0.0000       6.257960       170.2878 
 223   0.0000       6.259593       170.3322 
 224   0.0000       6.674985       181.6356 
 225   0.0000       6.710871       182.6121 
 226   0.0000       6.712790       182.6643 
 227   0.0000       6.894695       187.6142 
 228   0.0000       8.188976       222.8334 
 229   0.0000       8.189047       222.8353 
 230   0.0000       8.202828       223.2103 
 231   0.0000       8.203090       223.2174 
 232   0.0000       8.318435       226.3561 
 233   0.0000       8.320474       226.4116 
 234   0.0000       8.707962       236.9557 
 235   0.0000       8.712114       237.0687 
 236   0.0000       8.888960       241.8809 
 237   0.0000       9.067970       246.7520 
 238   0.0000       9.067971       246.7520 
 239   0.0000       9.085556       247.2305 
 240   0.0000       9.085570       247.2309 
 241   0.0000       9.300453       253.0782 
 242   0.0000       9.300816       253.0881 
 243   0.0000       9.824226       267.3308 
 244   0.0000       9.824941       267.3502 
 245   0.0000       9.874555       268.7003 
 246   0.0000      11.582874       315.1860 
 247   0.0000      11.583096       315.1921 
 248   0.0000      11.661965       317.3382 
 249   0.0000      11.662654       317.3569 
 250   0.0000      11.704944       318.5077 
 251   0.0000      11.714360       318.7639 
 252   0.0000      12.084941       328.8480 
 253   0.0000      12.801404       348.3439 
 254   0.0000      12.801407       348.3440 
 255   0.0000      12.835818       349.2804 
 256   0.0000      12.835845       349.2811 
 257   0.0000      12.956183       352.5557 
 258   0.0000      12.959756       352.6529 
 259   0.0000      13.140725       357.5773 
 260   0.0000      16.819641       457.6857 
 261   0.0000      16.820031       457.6963 
 262   0.0000      16.896862       459.7870 
 263   0.0000      16.902386       459.9373 
 264   0.0000      17.357555       472.3231 
 265   0.0000      17.550036       477.5608 
 266   0.0000      17.550078       477.5619 
 267   0.0000      17.699959       481.6404 
 268   0.0000      17.701779       481.6899 
 269   0.0000      18.140545       493.6293 
 270   0.0000      28.973260       788.4025 
 271   0.0000      38.577197      1049.7389 
 272   0.0000      62.329668      1696.0765 
 273   0.0000      62.329768      1696.0792 
 274   0.0000      62.378041      1697.3928 
 275   0.0000      62.378159      1697.3960 
 276   0.0000      62.644513      1704.6439 
 277   0.0000      65.741245      1788.9102 
 278   0.0000      65.741260      1788.9106 
 279   0.0000      65.831968      1791.3789 
 280   0.0000      65.832160      1791.3841 
 281   0.0000      66.094631      1798.5264 

                    ********************************
                    * MULLIKEN POPULATION ANALYSIS *
                    ********************************

--------------------------------------------
MULLIKEN ATOMIC CHARGES AND SPIN POPULATIONS
--------------------------------------------
   0 S :   -0.107879    0.795914
   1 Cl:    0.107879    0.204086
Sum of atomic charges         :    0.0000000
Sum of atomic spin populations:    1.0000000

-----------------------------------------------------
MULLIKEN REDUCED ORBITAL CHARGES AND SPIN POPULATIONS
-----------------------------------------------------
CHARGE
  0 S s       :     6.027883  s :     6.027883
      pz      :     2.857272  p :     9.931957
      px      :     3.144142
      py      :     3.930544
      dz2     :     0.042271  d :     0.128679
      dxz     :     0.041673
      dyz     :     0.043781
      dx2y2   :     0.000954
      dxy     :     0.000000
      f0      :     0.006198  f :     0.018512
      f+1     :     0.007336
      f-1     :     0.004586
      f+2     :     0.000048
      f-2     :     0.000000
      f+3     :     0.000168
      f-3     :     0.000176
      g0      :     0.001276  g :     0.001089
      g+1     :     0.000478
      g-1     :    -0.000675
      g+2     :     0.000001
      g-2     :     0.000000
      g+3     :     0.000003
      g-3     :     0.000004
      g+4     :     0.000001
      g-4     :     0.000000
      h0      :     0.000167  h :    -0.000242
      h+1     :    -0.000020
      h-1     :    -0.000391
      h+2     :    -0.000000
      h-2     :    -0.000000
      h+3     :     0.000001
      h-3     :     0.000001
      h+4     :     0.000000
      h-4     :     0.000000
      h+5     :     0.000000
      h-5     :     0.000000
  1 Cls       :     5.890032  s :     5.890032
      pz      :     3.154036  p :    10.864028
      px      :     3.762244
      py      :     3.947748
      dz2     :     0.018880  d :     0.124349
      dxz     :     0.037929
      dyz     :     0.067468
      dx2y2   :     0.000071
      dxy     :     0.000000
      f0      :     0.001332  f :     0.014505
      f+1     :     0.005811
      f-1     :     0.007294
      f+2     :     0.000006
      f-2     :     0.000000
      f+3     :     0.000028
      f-3     :     0.000033
      g0      :    -0.000314  g :    -0.000391
      g+1     :     0.000214
      g-1     :    -0.000320
      g+2     :    -0.000006
      g-2     :    -0.000000
      g+3     :     0.000015
      g-3     :     0.000020
      g+4     :     0.000000
      g-4     :     0.000000
      h0      :    -0.000105  h :    -0.000401
      h+1     :    -0.000028
      h-1     :    -0.000276
      h+2     :    -0.000003
      h-2     :    -0.000000
      h+3     :     0.000004
      h-3     :     0.000006
      h+4     :     0.000000
      h-4     :     0.000000
      h+5     :    -0.000000
      h-5     :    -0.000000

SPIN
  0 S s       :     0.003623  s :     0.003623
      pz      :     0.007958  p :     0.792721
      px      :     0.786105
      py      :    -0.001342
      dz2     :     0.000855  d :     0.005025
      dxz     :     0.003700
      dyz     :    -0.000326
      dx2y2   :     0.000796
      dxy     :     0.000000
      f0      :    -0.000643  f :    -0.003182
      f+1     :    -0.002562
      f-1     :    -0.000345
      f+2     :     0.000042
      f-2     :     0.000000
      f+3     :     0.000160
      f-3     :     0.000167
      g0      :    -0.000022  g :    -0.001870
      g+1     :    -0.001579
      g-1     :    -0.000273
      g+2     :    -0.000001
      g-2     :    -0.000000
      g+3     :     0.000003
      g-3     :     0.000003
      g+4     :    -0.000001
      g-4     :    -0.000000
      h0      :     0.000010  h :    -0.000404
      h+1     :    -0.000374
      h-1     :    -0.000040
      h+2     :    -0.000001
      h-2     :    -0.000000
      h+3     :     0.000000
      h-3     :     0.000001
      h+4     :    -0.000000
      h-4     :    -0.000000
      h+5     :    -0.000000
      h-5     :    -0.000000
  1 Cls       :     0.003233  s :     0.003233
      pz      :    -0.016456  p :     0.175667
      px      :     0.189637
      py      :     0.002486
      dz2     :     0.000368  d :     0.020622
      dxz     :     0.021223
      dyz     :    -0.001032
      dx2y2   :     0.000063
      dxy     :     0.000000
      f0      :     0.000132  f :     0.003477
      f+1     :     0.003012
      f-1     :     0.000273
      f+2     :     0.000004
      f-2     :     0.000000
      f+3     :     0.000026
      f-3     :     0.000030
      g0      :     0.000044  g :     0.000812
      g+1     :     0.000491
      g-1     :     0.000252
      g+2     :    -0.000005
      g-2     :    -0.000000
      g+3     :     0.000013
      g-3     :     0.000017
      g+4     :    -0.000000
      g-4     :    -0.000000
      h0      :     0.000004  h :     0.000275
      h+1     :     0.000139
      h-1     :     0.000123
      h+2     :    -0.000002
      h-2     :    -0.000000
      h+3     :     0.000005
      h-3     :     0.000006
      h+4     :    -0.000000
      h-4     :    -0.000000
      h+5     :     0.000000
      h-5     :     0.000000


                     *******************************
                     * LOEWDIN POPULATION ANALYSIS *
                     *******************************

-------------------------------------------
LOEWDIN ATOMIC CHARGES AND SPIN POPULATIONS
-------------------------------------------
   0 S :    0.140204    0.659936
   1 Cl:   -0.140204    0.340064

----------------------------------------------------
LOEWDIN REDUCED ORBITAL CHARGES AND SPIN POPULATIONS
----------------------------------------------------
CHARGE
  0 S s       :     5.388365  s :     5.388365
      pz      :     2.950749  p :     9.406148
      px      :     2.937083
      py      :     3.518315
      dz2     :     0.221816  d :     0.505064
      dxz     :     0.129881
      dyz     :     0.152509
      dx2y2   :     0.000859
      dxy     :     0.000000
      f0      :     0.113214  f :     0.291992
      f+1     :     0.082228
      f-1     :     0.096130
      f+2     :     0.000051
      f-2     :     0.000000
      f+3     :     0.000178
      f-3     :     0.000192
      g0      :     0.057633  g :     0.175228
      g+1     :     0.052110
      g-1     :     0.065473
      g+2     :     0.000003
      g-2     :     0.000000
      g+3     :     0.000003
      g-3     :     0.000004
      g+4     :     0.000001
      g-4     :     0.000000
      h0      :     0.026889  h :     0.093000
      h+1     :     0.029853
      h-1     :     0.036253
      h+2     :     0.000002
      h-2     :     0.000000
      h+3     :     0.000001
      h-3     :     0.000001
      h+4     :     0.000000
      h-4     :     0.000000
      h+5     :     0.000000
      h-5     :     0.000000
  1 Cls       :     5.496828  s :     5.496828
      pz      :     3.325013  p :    10.509664
      px      :     3.515485
      py      :     3.669166
      dz2     :     0.227099  d :     0.549426
      dxz     :     0.111907
      dyz     :     0.210348
      dx2y2   :     0.000071
      dxy     :     0.000000
      f0      :     0.114234  f :     0.315267
      f+1     :     0.071208
      f-1     :     0.129761
      f+2     :     0.000025
      f-2     :     0.000000
      f+3     :     0.000019
      f-3     :     0.000021
      g0      :     0.053998  g :     0.181270
      g+1     :     0.045582
      g-1     :     0.081641
      g+2     :     0.000028
      g-2     :     0.000000
      g+3     :     0.000009
      g-3     :     0.000012
      g+4     :     0.000000
      g-4     :     0.000000
      h0      :     0.023089  h :     0.087748
      h+1     :     0.024444
      h-1     :     0.040163
      h+2     :     0.000032
      h-2     :     0.000000
      h+3     :     0.000009
      h-3     :     0.000011
      h+4     :     0.000000
      h-4     :     0.000000
      h+5     :     0.000000
      h-5     :     0.000000

SPIN
  0 S s       :     0.002106  s :     0.002106
      pz      :     0.004222  p :     0.605844
      px      :     0.599373
      py      :     0.002249
      dz2     :     0.001570  d :     0.021620
      dxz     :     0.020249
      dyz     :    -0.000922
      dx2y2   :     0.000723
      dxy     :     0.000000
      f0      :    -0.001207  f :     0.011970
      f+1     :     0.012928
      f-1     :    -0.000149
      f+2     :     0.000045
      f-2     :     0.000000
      f+3     :     0.000171
      f-3     :     0.000182
      g0      :    -0.000170  g :     0.012092
      g+1     :     0.012381
      g-1     :    -0.000123
      g+2     :     0.000000
      g-2     :     0.000000
      g+3     :     0.000002
      g-3     :     0.000002
      g+4     :    -0.000001
      g-4     :    -0.000000
      h0      :    -0.000100  h :     0.006305
      h+1     :     0.006343
      h-1     :     0.000060
      h+2     :     0.000001
      h-2     :     0.000000
      h+3     :     0.000000
      h-3     :     0.000000
      h+4     :    -0.000000
      h-4     :    -0.000000
      h+5     :    -0.000000
      h-5     :    -0.000000
  1 Cls       :     0.000380  s :     0.000380
      pz      :    -0.008660  p :     0.145984
      px      :     0.154086
      py      :     0.000558
      dz2     :     0.000626  d :     0.075855
      dxz     :     0.078041
      dyz     :    -0.002872
      dx2y2   :     0.000061
      dxy     :     0.000000
      f0      :     0.000459  f :     0.059110
      f+1     :     0.058467
      f-1     :     0.000130
      f+2     :     0.000017
      f-2     :     0.000000
      f+3     :     0.000018
      f-3     :     0.000019
      g0      :     0.000071  g :     0.039993
      g+1     :     0.039395
      g-1     :     0.000488
      g+2     :     0.000022
      g-2     :     0.000000
      g+3     :     0.000008
      g-3     :     0.000010
      g+4     :    -0.000000
      g-4     :    -0.000000
      h0      :    -0.000190  h :     0.018741
      h+1     :     0.018529
      h-1     :     0.000356
      h+2     :     0.000027
      h-2     :     0.000000
      h+3     :     0.000009
      h-3     :     0.000011
      h+4     :    -0.000000
      h-4     :    -0.000000
      h+5     :    -0.000000
      h-5     :    -0.000000


                      *****************************
                      * MAYER POPULATION ANALYSIS *
                      *****************************

  NA   - Mulliken gross atomic population
  ZA   - Total nuclear charge
  QA   - Mulliken gross atomic charge
  VA   - Mayer's total valence
  BVA  - Mayer's bonded valence
  FA   - Mayer's free valence

  ATOM       NA         ZA         QA         VA         BVA        FA
  0 S     16.1079    16.0000    -0.1079     2.1105     1.4707     0.6398
  1 Cl    16.8921    17.0000     0.1079     1.5245     1.4707     0.0537

  Mayer bond orders larger than 0.1
B(  0-S ,  1-Cl) :   1.4707 

-------
TIMINGS
-------

Total SCF time: 0 days 0 hours 40 min 47 sec 

Total time                  ....    2447.175 sec
Sum of individual times     ....    2446.579 sec  (100.0%)

Fock matrix formation       ....    2441.358 sec  ( 99.8%)
  XC integration            ....      60.899 sec  (  2.5% of F)
    Basis function eval.    ....       6.214 sec  ( 10.2% of XC)
    Density eval.           ....      12.600 sec  ( 20.7% of XC)
    XC-Functional eval.     ....       0.919 sec  (  1.5% of XC)
    XC-Potential eval.      ....      40.538 sec  ( 66.6% of XC)
Diagonalization             ....       0.686 sec  (  0.0%)
Density matrix formation    ....       0.019 sec  (  0.0%)
Population analysis         ....       0.053 sec  (  0.0%)
Initial guess               ....       2.288 sec  (  0.1%)
Orbital Transformation      ....       0.000 sec  (  0.0%)
Orbital Orthonormalization  ....       0.000 sec  (  0.0%)
DIIS solution               ....       0.347 sec  (  0.0%)
Grid generation             ....       1.829 sec  (  0.1%)

-------------------------   --------------------
FINAL SINGLE POINT ENERGY      -858.050613605740
-------------------------   --------------------


                            ***************************************
                            *     ORCA property calculations      *
                            ***************************************

                                    ---------------------
                                    Active property flags
                                    ---------------------
   (+) Dipole Moment
   (+) Polarizability


------------------------------------------------------------------------------
                       ORCA ELECTRIC PROPERTIES CALCULATION
------------------------------------------------------------------------------

Dipole Moment Calculation                       ... on
Quadrupole Moment Calculation                   ... off
Polarizability Calculation                      ... Analytic (CP-SCF)
GBWName                                         ... scl_pbe.gbw
Electron density file                           ... scl_pbe.scfp.tmp
The origin for moment calculation is the CENTER OF MASS  = ( 0.000000,  0.000000  1.960187)

-------------
DIPOLE MOMENT
-------------
                                X             Y             Z
Electronic contribution:      0.00000      -0.00000       1.29962
Nuclear contribution   :      0.00000       0.00000      -1.22898
                        -----------------------------------------
Total Dipole Moment    :      0.00000      -0.00000       0.07064
                        -----------------------------------------
Magnitude (a.u.)       :      0.07064
Magnitude (Debye)      :      0.17955



--------------------
Rotational spectrum 
--------------------
 
Rotational constants in cm-1:     0.000000     0.256627     0.256627 
Rotational constants in MHz :     0.000000  7693.471946  7693.471946 

 Dipole components along the rotational axes: 
x,y,z [a.u.] :     0.070640    -0.000000     0.000000 
x,y,z [Debye]:     0.179552    -0.000000     0.000000 

 
Transforming and storing MO dipole integrals   ... done

                ... starting polarizability calculation

Opening the Dipole integral file               ... (scl_pbe.dmo.tmp) done
Reading Dipole-MO integrals                    ... done
Solving CP-SCF equations                       ... 
------------------------------------------------------------------------------
                           ORCA CP-SCF CALCULATION
------------------------------------------------------------------------------

Input orbitals are from        ... scl_pbe.gbw
Input Perturbation             ... scl_pbe.cpv.tmp
Wavefunction output            ... scl_pbe.cpu.tmp
Perturbation mode              ... Real perturbation (singlet)
Solver                         ... POPLE
Max. number of iterations      ... 200
Convergence tolerance          ... 1.000e-06
Integral handling              ... Direct
Number of perturbations        ... 3
Number of operators            ... 2
Orbital ranges used for CP-SCF:
 Operator 0:  Orbitals   0... 16  to  17...281
 Operator 1:  Orbitals   0... 15  to  16...281
DFT calculation                         ... on
Exchange functional (SCF)               ... PBE
Exchange functional (CP-SCF)            ... PBE
   PBE kappa parameter  XKappa (SCF)    ...  0.804000
   PBE kappa parameter  XKappa (CP-SCF) ...  0.804000
   PBE mue parameter   XMuePBE (SCF)    ...  0.219520
   PBE mue parameter   XMuePBE (CP-SCF) ...  0.219520
Correlation functional (SCF)            ... PBE
Correlation functional (CP-SCF)         ... PBE
   PBE beta parameter CBetaPBE (SCF)    ...  0.066725
   PBE beta parameter CBetaPBE (CP-SCF) ...  0.066725
 LDA part of GGA corr.  LDAOpt (SCF)    ... PW91-LDA
 LDA part of GGA corr.  LDAOpt (CP-SCF) ... PW91-LDA
Variables per vector in CP-SCF ... 8761
Number of vectors sought       ... 3
Recalculating density on grid  ... done
Calculating the xc-kernel      ... done
     CP-SCF ITERATION   0: 
     CP-SCF ITERATION   1:      0.886517648971
     CP-SCF ITERATION   2:      0.023104021804
     CP-SCF ITERATION   3:      0.005125982319
     CP-SCF ITERATION   4:      0.000318895278
     CP-SCF ITERATION   5:      0.000005747395
     CP-SCF ITERATION   6:      0.000000460269
done
Reading CP-SCF coefficients                    ... done
Doing the polarizability tensor   ... done
Cleaning up                                    ... done

-------------------------
THE POLARIZABILITY TENSOR
-------------------------

The raw cartesian tensor (atomic units):
   29.01704      0.00027     -0.00000  
    0.00027     31.88194     -0.00000  
   -0.00000     -0.00000     51.16646  
diagonalized tensor: 
   29.01704     31.88194     51.16646  

    1.00000      0.00010     -0.00000  
   -0.00010      1.00000     -0.00000  
    0.00000      0.00000      1.00000  

Isotropic polarizability :  37.35515


Timings for individual modules:

Sum of individual times         ...     3971.346 sec (=  66.189 min)
GTO integral calculation        ...        1.536 sec (=   0.026 min)   0.0 %
SCF iterations                  ...     2447.211 sec (=  40.787 min)  61.6 %
Solution of CP-SCF eqns.        ...     1522.599 sec (=  25.377 min)  38.3 %
                             ****ORCA TERMINATED NORMALLY****
TOTAL RUN TIME: 0 days 1 hours 6 minutes 11 seconds 738 msec
