
                                 *****************
                                 * O   R   C   A *
                                 *****************

           --- An Ab Initio, DFT and Semiempirical electronic structure package ---

                  #######################################################
                  #                        -***-                        #
                  #          Department of theory and spectroscopy      #
                  #               Directorship: Frank Neese             #
                  #        Max Planck Institute fuer Kohlenforschung    #
                  #                Kaiser Wilhelm Platz 1               #
                  #                 D-45470 Muelheim/Ruhr               #
                  #                      Germany                        #
                  #                                                     #
                  #                  All rights reserved                #
                  #                        -***-                        #
                  #######################################################


                         Program Version 4.1.2  - RELEASE  -


 With contributions from (in alphabetic order):
   Daniel Aravena         : Magnetic Properties
   Michael Atanasov       : Ab Initio Ligand Field Theory
   Alexander A. Auer      : GIAO ZORA
   Ute Becker             : Parallelization
   Giovanni Bistoni       : ED, Open-shell LED
   Martin Brehm           : Molecular dynamics
   Dmytro Bykov           : SCF Hessian
   Vijay G. Chilkuri      : MRCI spin determinant printing
   Dipayan Datta          : RHF DLPNO-CCSD density
   Achintya Kumar Dutta   : EOM-CC, STEOM-CC
   Dmitry Ganyushin       : Spin-Orbit,Spin-Spin,Magnetic field MRCI
   Miquel Garcia          : C-PCM Hessian
   Yang Guo               : DLPNO-NEVPT2, CIM, IAO-localization
   Andreas Hansen         : Spin unrestricted coupled pair/coupled cluster methods
   Benjamin Helmich-Paris : CASSCF linear response (MC-RPA)
   Lee Huntington         : MR-EOM, pCC
   Robert Izsak           : Overlap fitted RIJCOSX, COSX-SCS-MP3, EOM
   Christian Kollmar      : KDIIS, OOCD, Brueckner-CCSD(T), CCSD density
   Simone Kossmann        : Meta GGA functionals, TD-DFT gradient, OOMP2, MP2 Hessian
   Martin Krupicka        : AUTO-CI
   Lucas Lang             : DCDCAS
   Dagmar Lenk            : GEPOL surface, SMD
   Dimitrios Liakos       : Extrapolation schemes; parallel MDCI
   Dimitrios Manganas     : ROCIS; embedding schemes
   Dimitrios Pantazis     : SARC Basis sets
   Taras Petrenko         : DFT Hessian,TD-DFT gradient, ASA, ECA, R-Raman, ABS, FL, XAS/XES, NRVS
   Peter Pinski           : DLPNO-MP2, DLPNO-MP2 Gradient
   Christoph Reimann      : Effective Core Potentials
   Marius Retegan         : Local ZFS, SOC
   Christoph Riplinger    : Optimizer, TS searches, QM/MM, DLPNO-CCSD(T), (RO)-DLPNO pert. Triples
   Tobias Risthaus        : Range-separated hybrids, TD-DFT gradient, RPA, STAB
   Michael Roemelt        : Restricted open shell CIS
   Masaaki Saitow         : Open-shell DLPNO
   Barbara Sandhoefer     : DKH picture change effects
   Avijit Sen             : IP-ROCIS
   Kantharuban Sivalingam : CASSCF convergence, NEVPT2, FIC-MRCI
   Bernardo de Souza      : ESD, SOC TD-DFT
   Georgi Stoychev        : AutoAux, RI-MP2 NMR
   Willem Van den Heuvel  : Paramagnetic NMR
   Boris Wezisla          : Elementary symmetry handling
   Frank Wennmohs         : Technical directorship


 We gratefully acknowledge several colleagues who have allowed us to
 interface, adapt or use parts of their codes:
   Stefan Grimme, W. Hujo, H. Kruse,             : VdW corrections, initial TS optimization,
                  C. Bannwarth                     DFT functionals, gCP, sTDA/sTD-DF
   Ed Valeev                                     : LibInt (2-el integral package), F12 methods
   Garnet Chan, S. Sharma, J. Yang, R. Olivares  : DMRG
   Ulf Ekstrom                                   : XCFun DFT Library
   Mihaly Kallay                                 : mrcc  (arbitrary order and MRCC methods)
   Andreas Klamt, Michael Diedenhofen            : otool_cosmo (COSMO solvation model)
   Jiri Pittner, Ondrej Demel                    : Mk-CCSD
   Frank Weinhold                                : gennbo (NPA and NBO analysis)
   Christopher J. Cramer and Donald G. Truhlar   : smd solvation model
   Lars Goerigk                                  : TD-DFT with DH, B97 family of functionals
   V. Asgeirsson, H. Jonsson                     : NEB implementation
   FAccTs GmbH                                   : IRC, NEB, NEB-TS, Multilevel


 Your calculation uses the libint2 library for the computation of 2-el integrals
 For citations please refer to: http://libint.valeyev.net

 This ORCA versions uses:
   CBLAS   interface :  Fast vector & matrix operations
   LAPACKE interface :  Fast linear algebra routines
   SCALAPACK package :  Parallel linear algebra routines


----- Orbital basis set information -----
Your calculation utilizes the basis: aug-pc-4
   H, C-F              : F. Jensen, J. Chem. Phys. 115, 9113 (2001).
                         F. Jensen, J. Chem. Phys. 116, 7372 (2002).
                         F. Jensen, J. Chem. Phys. 117, 9234 (2002).
   Si-Cl               : F. Jensen, T. Helgaker, J. Chem. Phys. 121, 3463 (2004).
   He-B, Ne-Mg, Al, Ar : F. Jensen, J. Phys. Chem. A 111, 11198 (2007).
   K, Ca, Ga-Kr        : F. Jensen, J. Chem. Phys. 136, 094110 (2012).
   Sc-Zn               : F. Jensen, J. Chem. Phys. 138, 014107 (2013).

================================================================================
                                        WARNINGS
                       Please study these warnings very carefully!
================================================================================


INFO   : the flag for use of LIBINT has been found!

================================================================================
                                       INPUT FILE
================================================================================
NAME = sf2_pbe.inp
|  1> !uks pbe nori aug-pc-4 grid7 nofinalgrid verytightscf
|  2> 
|  3> %maxcore 1500
|  4> 
|  5> %pal nprocs 1 end
|  6> 
|  7> %scf
|  8> 	maxiter 200
|  9> end
| 10> %elprop
| 11> 	dipole true
| 12> 	 polar 1
| 13> 	 maxiter 200
| 14> end
| 15> 
| 16> * xyz 0 1
| 17> S 0.0000 0.0000 0.5511
| 18> F 0.0000 1.1985 -0.4899
| 19> F 0.0000 -1.1985 -0.4899
| 20> *
| 21> 
| 22>                          ****END OF INPUT****
================================================================================

                       ****************************
                       * Single Point Calculation *
                       ****************************

---------------------------------
CARTESIAN COORDINATES (ANGSTROEM)
---------------------------------
  S      0.000000    0.000000    0.551100
  F      0.000000    1.198500   -0.489900
  F      0.000000   -1.198500   -0.489900

----------------------------
CARTESIAN COORDINATES (A.U.)
----------------------------
  NO LB      ZA    FRAG     MASS         X           Y           Z
   0 S    16.0000    0    32.060    0.000000    0.000000    1.041428
   1 F     9.0000    0    18.998    0.000000    2.264837   -0.925777
   2 F     9.0000    0    18.998    0.000000   -2.264837   -0.925777

--------------------------------
INTERNAL COORDINATES (ANGSTROEM)
--------------------------------
 S      0   0   0     0.000000000000     0.00000000     0.00000000
 F      1   0   0     1.587477007708     0.00000000     0.00000000
 F      1   2   0     1.587477007708    98.04577039     0.00000000

---------------------------
INTERNAL COORDINATES (A.U.)
---------------------------
 S      0   0   0     0.000000000000     0.00000000     0.00000000
 F      1   0   0     2.999896788464     0.00000000     0.00000000
 F      1   2   0     2.999896788464    98.04577039     0.00000000

---------------------
BASIS SET INFORMATION
---------------------
There are 2 groups of distinct atoms

 Group   1 Type S   : 44s27p7d4f3g2h contracted to 8s7p7d4f3g2h pattern {15121211111/111111111/1111111/1111/111/11}
 Group   2 Type F   : 27s12p7d4f3g2h contracted to 9s8p7d4f3g2h pattern {1191111111/51111111/1111111/1111/111/11}

Atom   0S    basis set group =>   1
Atom   1F    basis set group =>   2
Atom   2F    basis set group =>   2
------------------------------------------------------------------------------
                           ORCA GTO INTEGRAL CALCULATION
------------------------------------------------------------------------------

                         BASIS SET STATISTICS AND STARTUP INFO

 # of primitive gaussian shells          ...  197
 # of primitive gaussian functions       ...  587
 # of contracted shells                  ...   97
 # of contracted basis functions         ...  431
 Highest angular momentum                ...    5
 Maximum contraction depth               ...   15
 Integral package used                   ... LIBINT
 Integral threshhold            Thresh   ...  1.000e-12
 Primitive cut-off              TCut     ...  1.000e-14


------------------------------ INTEGRAL EVALUATION ----------------------------


 * One electron integrals 
 Pre-screening matrix                    ... done
 Shell pair data                         ... done (   0.002 sec)

-------------------------------------------------------------------------------
                                 ORCA SCF
-------------------------------------------------------------------------------

------------
SCF SETTINGS
------------
Hamiltonian:
 Density Functional     Method          .... DFT(GTOs)
 Exchange Functional    Exchange        .... PBE
   PBE kappa parameter   XKappa         ....  0.804000
   PBE mue parameter    XMuePBE         ....  0.219520
 Correlation Functional Correlation     .... PBE
   PBE beta parameter  CBetaPBE         ....  0.066725
 LDA part of GGA corr.  LDAOpt          .... PW91-LDA
 Gradients option       PostSCFGGA      .... off
   Density functional embedding theory  .... OFF
   NL short-range parameter             ....  6.400000


General Settings:
 Integral files         IntName         .... sf2_pbe
 Hartree-Fock type      HFTyp           .... UHF
 Total Charge           Charge          ....    0
 Multiplicity           Mult            ....    1
 Number of Electrons    NEL             ....   34
 Basis Dimension        Dim             ....  431
 Nuclear Repulsion      ENuc            ....    113.8853862671 Eh

Convergence Acceleration:
 DIIS                   CNVDIIS         .... on
   Start iteration      DIISMaxIt       ....    12
   Startup error        DIISStart       ....  0.200000
   # of expansion vecs  DIISMaxEq       ....     5
   Bias factor          DIISBfac        ....   1.050
   Max. coefficient     DIISMaxC        ....  10.000
 Newton-Raphson         CNVNR           .... off
 SOSCF                  CNVSOSCF        .... off
 Level Shifting         CNVShift        .... on
   Level shift para.    LevelShift      ....    0.2500
   Turn off err/grad.   ShiftErr        ....    0.0010
 Zerner damping         CNVZerner       .... off
 Static damping         CNVDamp         .... on
   Fraction old density DampFac         ....    0.7000
   Max. Damping (<1)    DampMax         ....    0.9800
   Min. Damping (>=0)   DampMin         ....    0.0000
   Turn off err/grad.   DampErr         ....    0.1000
 Fernandez-Rico         CNVRico         .... off

SCF Procedure:
 Maximum # iterations   MaxIter         ....   200
 SCF integral mode      SCFMode         .... Direct
   Integral package                     .... LIBINT
 Reset frequency        DirectResetFreq ....    20
 Integral Threshold     Thresh          ....  1.000e-12 Eh
 Primitive CutOff       TCut            ....  1.000e-14 Eh

Convergence Tolerance:
 Convergence Check Mode ConvCheckMode   .... Total+1el-Energy
 Convergence forced     ConvForced      .... 0
 Energy Change          TolE            ....  1.000e-09 Eh
 1-El. energy change                    ....  1.000e-06 Eh
 DIIS Error             TolErr          ....  1.000e-08


Diagonalization of the overlap matrix:
Smallest eigenvalue                        ... 6.937e-06
Time for diagonalization                   ...    0.043 sec
Threshold for overlap eigenvalues          ... 1.000e-08
Number of eigenvalues below threshold      ... 0
Time for construction of square roots      ...    0.027 sec
Total time needed                          ...    0.071 sec

-------------------
DFT GRID GENERATION
-------------------

General Integration Accuracy     IntAcc      ...  5.670
Radial Grid Type                 RadialGrid  ... Gauss-Chebyshev
Angular Grid (max. acc.)         AngularGrid ... Lebedev-770
Angular grid pruning method      GridPruning ... 3 (G Style)
Weight generation scheme         WeightScheme... Becke
Basis function cutoff            BFCut       ...    1.0000e-12
Integration weight cutoff        WCut        ...    1.0000e-14
Grids for H and He will be reduced by one unit

# of grid points (after initial pruning)     ...  78172 (   0.0 sec)
# of grid points (after weights+screening)   ...  77576 (   0.0 sec)
nearest neighbour list constructed           ...    0.0 sec
Grid point re-assignment to atoms done       ...    0.0 sec
Grid point division into batches done        ...    1.9 sec
Reduced shell lists constructed in    3.0 sec

Total number of grid points                  ...    77576
Total number of batches                      ...     1213
Average number of points per batch           ...       63
Average number of grid points per atom       ...    25859
Average number of shells per batch           ...    65.75 (67.78%)
Average number of basis functions per batch  ...   304.91 (70.74%)
Average number of large shells per batch     ...    57.48 (87.43%)
Average number of large basis fcns per batch ...   266.83 (87.51%)
Maximum spatial batch extension              ...  17.77, 15.89, 16.24 au
Average spatial batch extension              ...   2.23,  2.12,  2.22 au

Time for grid setup =    3.039 sec

------------------------------
INITIAL GUESS: MODEL POTENTIAL
------------------------------
Loading Hartree-Fock densities                     ... done
Calculating cut-offs                               ... done
Setting up the integral package                    ... done
Initializing the effective Hamiltonian             ... done
Starting the Coulomb interaction                   ... done (   0.2 sec)
Reading the grid                                   ... done
Mapping shells                                     ... done
Starting the XC term evaluation                    ... done (   5.9 sec)
  promolecular density results
     # of electrons  =     34.000000389
     EX              =    -44.882918874
     EC              =     -1.249695010
     EX+EC           =    -46.132613884
Transforming the Hamiltonian                       ... done (   0.0 sec)
Diagonalizing the Hamiltonian                      ... done (   0.0 sec)
Back transforming the eigenvectors                 ... done (   0.0 sec)
Now organizing SCF variables                       ... done
                      ------------------
                      INITIAL GUESS DONE (   9.3 sec)
                      ------------------
--------------
SCF ITERATIONS
--------------
ITER       Energy         Delta-E        Max-DP      RMS-DP      [F,P]     Damp
               ***  Starting incremental Fock matrix formation  ***
  0   -597.5726322006   0.000000000000 0.01489439  0.00010776  0.1370395 0.7000
  1   -597.5929663996  -0.020334199012 0.00524199  0.00005951  0.0331158 0.7000
                               ***Turning on DIIS***
  2   -597.5977386472  -0.004772247609 0.01438413  0.00010500  0.0193172 0.0000
  3   -597.6111326475  -0.013394000295 0.00404449  0.00003762  0.0118391 0.0000
  4   -597.6113796984  -0.000247050857 0.00219156  0.00001406  0.0167441 0.0000
  5   -597.6118036550  -0.000423956581 0.00116737  0.00000733  0.0032029 0.0000
  6   -597.6118452334  -0.000041578414 0.00024187  0.00000216  0.0008476 0.0000
  7   -597.6118476451  -0.000002411696 0.00008775  0.00000049  0.0000959 0.0000
  8   -597.6118476598  -0.000000014733 0.00002612  0.00000014  0.0000362 0.0000
  9   -597.6118476636  -0.000000003763 0.00000279  0.00000002  0.0000029 0.0000
 10   -597.6118476636  -0.000000000009 0.00000336  0.00000003  0.0000008 0.0000
 11   -597.6118476636   0.000000000026 0.00000833  0.00000008  0.0000003 0.0000
                 **** Energy Check signals convergence ****

               *****************************************************
               *                     SUCCESS                       *
               *           SCF CONVERGED AFTER  12 CYCLES          *
               *****************************************************


----------------
TOTAL SCF ENERGY
----------------

Total Energy       :         -597.61184766 Eh          -16261.84511 eV

Components:
Nuclear Repulsion  :          113.88538627 Eh            3098.97891 eV
Electronic Energy  :         -711.49723393 Eh          -19360.82402 eV
One Electron Energy:        -1054.48166846 Eh          -28693.90497 eV
Two Electron Energy:          342.98443453 Eh            9333.08095 eV

Virial components:
Potential Energy   :        -1194.42065101 Eh          -32501.83828 eV
Kinetic Energy     :          596.80880335 Eh           16239.99316 eV
Virial Ratio       :            2.00134556


DFT components:
N(Alpha)           :       16.999999448712 electrons
N(Beta)            :       16.999999448712 electrons
N(Total)           :       33.999998897424 electrons
E(X)               :      -44.994116134792 Eh       
E(C)               :       -1.243492626764 Eh       
E(XC)              :      -46.237608761556 Eh       
DFET-embed. en.    :        0.000000000000 Eh       

---------------
SCF CONVERGENCE
---------------

  Last Energy change         ...   -6.9349e-12  Tolerance :   1.0000e-09
  Last MAX-Density change    ...    8.1835e-06  Tolerance :   1.0000e-08
  Last RMS-Density change    ...    5.9523e-08  Tolerance :   1.0000e-09
  Last DIIS Error            ...    2.2058e-08  Tolerance :   1.0000e-08

             **** THE GBW FILE WAS UPDATED (sf2_pbe.gbw) ****
             **** DENSITY FILE WAS UPDATED (sf2_pbe.scfp.tmp) ****
             **** ENERGY FILE WAS UPDATED (sf2_pbe.en.tmp) ****
----------------------
UHF SPIN CONTAMINATION
----------------------

Warning: in a DFT calculation there is little theoretical justification to 
         calculate <S**2> as in Hartree-Fock theory. We will do it anyways
         but you should keep in mind that the values have only limited relevance

Expectation value of <S**2>     :    -0.000000
Ideal value S*(S+1) for S=0.0   :     0.000000
Deviation                       :    -0.000000

----------------
ORBITAL ENERGIES
----------------
                 SPIN UP ORBITALS
  NO   OCC          E(Eh)            E(eV) 
   0   1.0000     -88.162776     -2399.0311 
   1   1.0000     -24.309360      -661.4913 
   2   1.0000     -24.309360      -661.4913 
   3   1.0000      -7.788645      -211.9398 
   4   1.0000      -5.814785      -158.2283 
   5   1.0000      -5.810248      -158.1049 
   6   1.0000      -5.793772      -157.6565 
   7   1.0000      -1.177718       -32.0473 
   8   1.0000      -1.136641       -30.9296 
   9   1.0000      -0.677482       -18.4352 
  10   1.0000      -0.524327       -14.2677 
  11   1.0000      -0.476642       -12.9701 
  12   1.0000      -0.455097       -12.3838 
  13   1.0000      -0.407254       -11.0820 
  14   1.0000      -0.398325       -10.8390 
  15   1.0000      -0.390872       -10.6362 
  16   1.0000      -0.211958        -5.7677 
  17   0.0000      -0.107402        -2.9225 
  18   0.0000      -0.069216        -1.8835 
  19   0.0000      -0.006109        -0.1662 
  20   0.0000       0.017457         0.4750 
  21   0.0000       0.021815         0.5936 
  22   0.0000       0.024798         0.6748 
  23   0.0000       0.054791         1.4909 
  24   0.0000       0.060064         1.6344 
  25   0.0000       0.061085         1.6622 
  26   0.0000       0.065070         1.7707 
  27   0.0000       0.065169         1.7733 
  28   0.0000       0.091523         2.4905 
  29   0.0000       0.098452         2.6790 
  30   0.0000       0.099890         2.7182 
  31   0.0000       0.115959         3.1554 
  32   0.0000       0.117393         3.1944 
  33   0.0000       0.128719         3.5026 
  34   0.0000       0.136866         3.7243 
  35   0.0000       0.141454         3.8492 
  36   0.0000       0.141611         3.8534 
  37   0.0000       0.155418         4.2291 
  38   0.0000       0.169560         4.6140 
  39   0.0000       0.196946         5.3592 
  40   0.0000       0.199101         5.4178 
  41   0.0000       0.220734         6.0065 
  42   0.0000       0.235290         6.4026 
  43   0.0000       0.236571         6.4374 
  44   0.0000       0.249150         6.7797 
  45   0.0000       0.252644         6.8748 
  46   0.0000       0.256466         6.9788 
  47   0.0000       0.258064         7.0223 
  48   0.0000       0.265577         7.2267 
  49   0.0000       0.275624         7.5001 
  50   0.0000       0.279194         7.5972 
  51   0.0000       0.280631         7.6364 
  52   0.0000       0.285611         7.7719 
  53   0.0000       0.291136         7.9222 
  54   0.0000       0.297045         8.0830 
  55   0.0000       0.314147         8.5484 
  56   0.0000       0.318297         8.6613 
  57   0.0000       0.336877         9.1669 
  58   0.0000       0.342960         9.3324 
  59   0.0000       0.350140         9.5278 
  60   0.0000       0.352805         9.6003 
  61   0.0000       0.360239         9.8026 
  62   0.0000       0.382778        10.4159 
  63   0.0000       0.389977        10.6118 
  64   0.0000       0.404033        10.9943 
  65   0.0000       0.414076        11.2676 
  66   0.0000       0.430055        11.7024 
  67   0.0000       0.441918        12.0252 
  68   0.0000       0.455262        12.3883 
  69   0.0000       0.459535        12.5046 
  70   0.0000       0.459869        12.5137 
  71   0.0000       0.463351        12.6084 
  72   0.0000       0.464310        12.6345 
  73   0.0000       0.477790        13.0013 
  74   0.0000       0.483585        13.1590 
  75   0.0000       0.507932        13.8215 
  76   0.0000       0.520332        14.1590 
  77   0.0000       0.526858        14.3365 
  78   0.0000       0.531745        14.4695 
  79   0.0000       0.562077        15.2949 
  80   0.0000       0.591052        16.0833 
  81   0.0000       0.591340        16.0912 
  82   0.0000       0.595799        16.2125 
  83   0.0000       0.604005        16.4358 
  84   0.0000       0.614506        16.7216 
  85   0.0000       0.614594        16.7240 
  86   0.0000       0.619453        16.8562 
  87   0.0000       0.625628        17.0242 
  88   0.0000       0.629131        17.1195 
  89   0.0000       0.646010        17.5788 
  90   0.0000       0.666867        18.1464 
  91   0.0000       0.668624        18.1942 
  92   0.0000       0.679608        18.4931 
  93   0.0000       0.685872        18.6635 
  94   0.0000       0.690460        18.7884 
  95   0.0000       0.703343        19.1389 
  96   0.0000       0.704647        19.1744 
  97   0.0000       0.708107        19.2686 
  98   0.0000       0.715738        19.4762 
  99   0.0000       0.717764        19.5313 
 100   0.0000       0.718687        19.5565 
 101   0.0000       0.732484        19.9319 
 102   0.0000       0.736337        20.0367 
 103   0.0000       0.749829        20.4039 
 104   0.0000       0.781524        21.2664 
 105   0.0000       0.794177        21.6106 
 106   0.0000       0.805716        21.9247 
 107   0.0000       0.806340        21.9416 
 108   0.0000       0.825181        22.4543 
 109   0.0000       0.851803        23.1787 
 110   0.0000       0.853163        23.2157 
 111   0.0000       0.869028        23.6475 
 112   0.0000       0.870279        23.6815 
 113   0.0000       0.881501        23.9869 
 114   0.0000       0.897784        24.4299 
 115   0.0000       0.899109        24.4660 
 116   0.0000       0.904966        24.6254 
 117   0.0000       0.935006        25.4428 
 118   0.0000       0.960824        26.1453 
 119   0.0000       0.962469        26.1901 
 120   0.0000       0.963368        26.2146 
 121   0.0000       0.977953        26.6115 
 122   0.0000       0.982458        26.7340 
 123   0.0000       0.994501        27.0618 
 124   0.0000       1.003829        27.3156 
 125   0.0000       1.012981        27.5646 
 126   0.0000       1.021065        27.7846 
 127   0.0000       1.036937        28.2165 
 128   0.0000       1.053424        28.6651 
 129   0.0000       1.064773        28.9739 
 130   0.0000       1.083680        29.4884 
 131   0.0000       1.117085        30.3974 
 132   0.0000       1.138190        30.9717 
 133   0.0000       1.176735        32.0206 
 134   0.0000       1.186578        32.2884 
 135   0.0000       1.186857        32.2960 
 136   0.0000       1.196241        32.5514 
 137   0.0000       1.197087        32.5744 
 138   0.0000       1.215058        33.0634 
 139   0.0000       1.216899        33.1135 
 140   0.0000       1.228895        33.4399 
 141   0.0000       1.229204        33.4483 
 142   0.0000       1.231440        33.5092 
 143   0.0000       1.262434        34.3526 
 144   0.0000       1.267641        34.4943 
 145   0.0000       1.286002        34.9939 
 146   0.0000       1.287152        35.0252 
 147   0.0000       1.287730        35.0409 
 148   0.0000       1.304578        35.4994 
 149   0.0000       1.342831        36.5403 
 150   0.0000       1.359943        37.0059 
 151   0.0000       1.365215        37.1494 
 152   0.0000       1.376994        37.4699 
 153   0.0000       1.394195        37.9380 
 154   0.0000       1.404940        38.2304 
 155   0.0000       1.410329        38.3770 
 156   0.0000       1.456619        39.6366 
 157   0.0000       1.466063        39.8936 
 158   0.0000       1.466659        39.9098 
 159   0.0000       1.466688        39.9106 
 160   0.0000       1.472458        40.0676 
 161   0.0000       1.480492        40.2862 
 162   0.0000       1.508120        41.0380 
 163   0.0000       1.514282        41.2057 
 164   0.0000       1.539083        41.8806 
 165   0.0000       1.545984        42.0684 
 166   0.0000       1.589398        43.2497 
 167   0.0000       1.612783        43.8861 
 168   0.0000       1.621963        44.1359 
 169   0.0000       1.658153        45.1206 
 170   0.0000       1.676562        45.6216 
 171   0.0000       1.701298        46.2947 
 172   0.0000       1.723247        46.8919 
 173   0.0000       1.749774        47.6138 
 174   0.0000       1.768617        48.1265 
 175   0.0000       1.844636        50.1951 
 176   0.0000       1.850987        50.3679 
 177   0.0000       1.875834        51.0440 
 178   0.0000       1.902716        51.7755 
 179   0.0000       2.115152        57.5562 
 180   0.0000       2.155243        58.6471 
 181   0.0000       2.162960        58.8571 
 182   0.0000       2.164029        58.8862 
 183   0.0000       2.170293        59.0567 
 184   0.0000       2.211073        60.1663 
 185   0.0000       2.216651        60.3181 
 186   0.0000       2.217047        60.3289 
 187   0.0000       2.245651        61.1073 
 188   0.0000       2.256240        61.3954 
 189   0.0000       2.283267        62.1309 
 190   0.0000       2.298778        62.5529 
 191   0.0000       2.330682        63.4211 
 192   0.0000       2.336766        63.5866 
 193   0.0000       2.362290        64.2812 
 194   0.0000       2.417543        65.7847 
 195   0.0000       2.419047        65.8256 
 196   0.0000       2.430651        66.1414 
 197   0.0000       2.468160        67.1621 
 198   0.0000       2.469147        67.1889 
 199   0.0000       2.530524        68.8590 
 200   0.0000       2.535653        68.9986 
 201   0.0000       2.549617        69.3786 
 202   0.0000       2.601316        70.7854 
 203   0.0000       2.701654        73.5158 
 204   0.0000       2.705091        73.6093 
 205   0.0000       2.725357        74.1607 
 206   0.0000       2.748016        74.7773 
 207   0.0000       2.755872        74.9911 
 208   0.0000       2.767923        75.3190 
 209   0.0000       2.905819        79.0714 
 210   0.0000       2.935405        79.8764 
 211   0.0000       2.953399        80.3661 
 212   0.0000       2.958437        80.5032 
 213   0.0000       3.092560        84.1528 
 214   0.0000       3.133065        85.2550 
 215   0.0000       3.151001        85.7431 
 216   0.0000       3.227595        87.8273 
 217   0.0000       3.266330        88.8814 
 218   0.0000       3.334252        90.7296 
 219   0.0000       3.353278        91.2473 
 220   0.0000       3.450308        93.8877 
 221   0.0000       3.517648        95.7201 
 222   0.0000       3.593564        97.7859 
 223   0.0000       3.607532        98.1659 
 224   0.0000       3.616136        98.4001 
 225   0.0000       3.651594        99.3649 
 226   0.0000       3.712217       101.0146 
 227   0.0000       3.721361       101.2634 
 228   0.0000       3.844276       104.6081 
 229   0.0000       3.860189       105.0411 
 230   0.0000       3.894231       105.9674 
 231   0.0000       3.921355       106.7055 
 232   0.0000       3.938745       107.1787 
 233   0.0000       4.125056       112.2485 
 234   0.0000       4.945112       134.5633 
 235   0.0000       5.059096       137.6650 
 236   0.0000       5.102734       138.8525 
 237   0.0000       5.120015       139.3227 
 238   0.0000       5.125730       139.4782 
 239   0.0000       5.174647       140.8093 
 240   0.0000       5.188365       141.1826 
 241   0.0000       5.218016       141.9894 
 242   0.0000       5.265322       143.2767 
 243   0.0000       5.269242       143.3834 
 244   0.0000       5.272185       143.4635 
 245   0.0000       5.285566       143.8276 
 246   0.0000       5.315087       144.6309 
 247   0.0000       5.328859       145.0056 
 248   0.0000       5.339676       145.3000 
 249   0.0000       5.351293       145.6161 
 250   0.0000       5.361157       145.8845 
 251   0.0000       5.430263       147.7650 
 252   0.0000       5.456059       148.4669 
 253   0.0000       5.473270       148.9353 
 254   0.0000       5.570622       151.5843 
 255   0.0000       5.612588       152.7263 
 256   0.0000       5.634764       153.3297 
 257   0.0000       5.753724       156.5668 
 258   0.0000       5.791003       157.5812 
 259   0.0000       5.793885       157.6596 
 260   0.0000       5.873445       159.8246 
 261   0.0000       5.925720       161.2470 
 262   0.0000       5.927993       161.3089 
 263   0.0000       5.955217       162.0497 
 264   0.0000       5.978906       162.6943 
 265   0.0000       5.988524       162.9560 
 266   0.0000       6.041042       164.3851 
 267   0.0000       6.113796       166.3649 
 268   0.0000       6.147450       167.2806 
 269   0.0000       6.150327       167.3589 
 270   0.0000       6.188428       168.3957 
 271   0.0000       6.222277       169.3168 
 272   0.0000       6.338317       172.4744 
 273   0.0000       6.383811       173.7123 
 274   0.0000       6.432654       175.0414 
 275   0.0000       6.442098       175.2984 
 276   0.0000       6.947059       189.0391 
 277   0.0000       6.971061       189.6922 
 278   0.0000       6.978012       189.8814 
 279   0.0000       7.035166       191.4366 
 280   0.0000       7.063350       192.2035 
 281   0.0000       7.084420       192.7769 
 282   0.0000       7.099525       193.1879 
 283   0.0000       7.111971       193.5266 
 284   0.0000       7.120411       193.7562 
 285   0.0000       7.131699       194.0634 
 286   0.0000       7.142491       194.3571 
 287   0.0000       7.303069       198.7266 
 288   0.0000       7.340742       199.7518 
 289   0.0000       7.360991       200.3028 
 290   0.0000       7.643026       207.9773 
 291   0.0000       7.682905       209.0625 
 292   0.0000       7.782452       211.7713 
 293   0.0000       7.857388       213.8104 
 294   0.0000       7.878450       214.3835 
 295   0.0000       7.903648       215.0692 
 296   0.0000       8.263439       224.8596 
 297   0.0000       8.399220       228.5544 
 298   0.0000       8.412256       228.9091 
 299   0.0000       8.454908       230.0698 
 300   0.0000       8.556128       232.8241 
 301   0.0000       8.616080       234.4554 
 302   0.0000       8.658838       235.6190 
 303   0.0000       8.705545       236.8899 
 304   0.0000       8.712437       237.0775 
 305   0.0000       8.787314       239.1150 
 306   0.0000       8.896126       242.0759 
 307   0.0000       9.063045       246.6180 
 308   0.0000       9.199173       250.3222 
 309   0.0000       9.735467       264.9155 
 310   0.0000       9.848942       268.0033 
 311   0.0000      11.658974       317.2568 
 312   0.0000      11.717102       318.8386 
 313   0.0000      11.774377       320.3971 
 314   0.0000      11.801318       321.1302 
 315   0.0000      11.815550       321.5175 
 316   0.0000      12.127366       330.0024 
 317   0.0000      12.220303       332.5314 
 318   0.0000      12.226027       332.6871 
 319   0.0000      12.259112       333.5874 
 320   0.0000      12.279074       334.1306 
 321   0.0000      12.350234       336.0670 
 322   0.0000      12.373721       336.7061 
 323   0.0000      12.386163       337.0446 
 324   0.0000      12.397478       337.3525 
 325   0.0000      12.584624       342.4450 
 326   0.0000      12.619385       343.3909 
 327   0.0000      12.620926       343.4329 
 328   0.0000      12.626231       343.5772 
 329   0.0000      12.632979       343.7608 
 330   0.0000      12.633725       343.7811 
 331   0.0000      12.641747       343.9994 
 332   0.0000      12.641915       344.0040 
 333   0.0000      12.642203       344.0118 
 334   0.0000      12.644139       344.0645 
 335   0.0000      12.657455       344.4269 
 336   0.0000      12.734121       346.5131 
 337   0.0000      12.734725       346.5295 
 338   0.0000      12.824865       348.9823 
 339   0.0000      12.870958       350.2366 
 340   0.0000      12.898785       350.9938 
 341   0.0000      12.946188       352.2837 
 342   0.0000      12.968205       352.8828 
 343   0.0000      12.992806       353.5522 
 344   0.0000      13.112303       356.8039 
 345   0.0000      13.138249       357.5099 
 346   0.0000      13.175304       358.5183 
 347   0.0000      13.225604       359.8870 
 348   0.0000      13.430213       365.4547 
 349   0.0000      13.518238       367.8500 
 350   0.0000      14.245163       387.6306 
 351   0.0000      14.270765       388.3272 
 352   0.0000      14.366181       390.9237 
 353   0.0000      14.409308       392.0972 
 354   0.0000      14.621998       397.8848 
 355   0.0000      14.623305       397.9203 
 356   0.0000      14.961227       407.1157 
 357   0.0000      14.962256       407.1437 
 358   0.0000      14.974410       407.4744 
 359   0.0000      14.986809       407.8118 
 360   0.0000      15.056136       409.6983 
 361   0.0000      15.111012       411.1915 
 362   0.0000      15.132605       411.7791 
 363   0.0000      15.218094       414.1054 
 364   0.0000      15.359860       417.9630 
 365   0.0000      15.381131       418.5419 
 366   0.0000      15.422197       419.6593 
 367   0.0000      15.531122       422.6233 
 368   0.0000      15.563439       423.5027 
 369   0.0000      15.658620       426.0927 
 370   0.0000      15.808117       430.1607 
 371   0.0000      16.060894       437.0391 
 372   0.0000      17.004436       462.7142 
 373   0.0000      17.026232       463.3073 
 374   0.0000      17.171902       467.2712 
 375   0.0000      17.625864       479.6241 
 376   0.0000      18.292980       497.7773 
 377   0.0000      20.064682       545.9878 
 378   0.0000      20.069709       546.1246 
 379   0.0000      20.069828       546.1278 
 380   0.0000      20.070212       546.1382 
 381   0.0000      20.072100       546.1896 
 382   0.0000      20.124569       547.6174 
 383   0.0000      20.133313       547.8553 
 384   0.0000      20.149324       548.2910 
 385   0.0000      20.409384       555.3676 
 386   0.0000      20.418043       555.6032 
 387   0.0000      20.497888       557.7759 
 388   0.0000      20.573693       559.8386 
 389   0.0000      21.051290       572.8347 
 390   0.0000      21.088015       573.8341 
 391   0.0000      21.109362       574.4149 
 392   0.0000      21.151014       575.5483 
 393   0.0000      21.617517       588.2425 
 394   0.0000      21.812966       593.5610 
 395   0.0000      30.274424       823.8090 
 396   0.0000      30.337529       825.5261 
 397   0.0000      30.377140       826.6040 
 398   0.0000      30.398388       827.1822 
 399   0.0000      30.509404       830.2031 
 400   0.0000      30.522616       830.5626 
 401   0.0000      30.523851       830.5962 
 402   0.0000      30.722800       836.0099 
 403   0.0000      31.109164       846.5234 
 404   0.0000      31.145808       847.5205 
 405   0.0000      32.324240       879.5873 
 406   0.0000      41.481602      1128.7718 
 407   0.0000      41.502126      1129.3303 
 408   0.0000      41.581648      1131.4942 
 409   0.0000      41.653001      1133.4358 
 410   0.0000      41.781155      1136.9230 
 411   0.0000      41.793778      1137.2665 
 412   0.0000      42.775954      1163.9929 
 413   0.0000      42.788675      1164.3390 
 414   0.0000      62.382521      1697.5147 
 415   0.0000      62.385586      1697.5981 
 416   0.0000      62.446007      1699.2422 
 417   0.0000      62.658632      1705.0281 
 418   0.0000      63.019647      1714.8518 
 419   0.0000      91.213160      2482.0363 
 420   0.0000      91.263567      2483.4079 
 421   0.0000      91.283475      2483.9496 
 422   0.0000      91.298560      2484.3601 
 423   0.0000      91.375848      2486.4632 
 424   0.0000      91.381681      2486.6220 
 425   0.0000      91.385918      2486.7373 
 426   0.0000      91.526059      2490.5507 
 427   0.0000      91.796147      2497.9001 
 428   0.0000      91.824527      2498.6724 
 429   0.0000     201.573361      5485.0900 
 430   0.0000     201.613244      5486.1753 

                 SPIN DOWN ORBITALS
  NO   OCC          E(Eh)            E(eV) 
   0   1.0000     -88.162776     -2399.0311 
   1   1.0000     -24.309360      -661.4913 
   2   1.0000     -24.309360      -661.4913 
   3   1.0000      -7.788645      -211.9398 
   4   1.0000      -5.814785      -158.2283 
   5   1.0000      -5.810248      -158.1049 
   6   1.0000      -5.793772      -157.6565 
   7   1.0000      -1.177718       -32.0473 
   8   1.0000      -1.136641       -30.9296 
   9   1.0000      -0.677482       -18.4352 
  10   1.0000      -0.524327       -14.2677 
  11   1.0000      -0.476642       -12.9701 
  12   1.0000      -0.455097       -12.3838 
  13   1.0000      -0.407254       -11.0820 
  14   1.0000      -0.398325       -10.8390 
  15   1.0000      -0.390872       -10.6362 
  16   1.0000      -0.211958        -5.7677 
  17   0.0000      -0.107402        -2.9225 
  18   0.0000      -0.069216        -1.8835 
  19   0.0000      -0.006109        -0.1662 
  20   0.0000       0.017457         0.4750 
  21   0.0000       0.021815         0.5936 
  22   0.0000       0.024798         0.6748 
  23   0.0000       0.054791         1.4909 
  24   0.0000       0.060064         1.6344 
  25   0.0000       0.061085         1.6622 
  26   0.0000       0.065070         1.7707 
  27   0.0000       0.065169         1.7733 
  28   0.0000       0.091523         2.4905 
  29   0.0000       0.098452         2.6790 
  30   0.0000       0.099890         2.7182 
  31   0.0000       0.115959         3.1554 
  32   0.0000       0.117393         3.1944 
  33   0.0000       0.128719         3.5026 
  34   0.0000       0.136866         3.7243 
  35   0.0000       0.141454         3.8492 
  36   0.0000       0.141611         3.8534 
  37   0.0000       0.155418         4.2291 
  38   0.0000       0.169560         4.6140 
  39   0.0000       0.196946         5.3592 
  40   0.0000       0.199101         5.4178 
  41   0.0000       0.220734         6.0065 
  42   0.0000       0.235290         6.4026 
  43   0.0000       0.236571         6.4374 
  44   0.0000       0.249150         6.7797 
  45   0.0000       0.252644         6.8748 
  46   0.0000       0.256466         6.9788 
  47   0.0000       0.258064         7.0223 
  48   0.0000       0.265577         7.2267 
  49   0.0000       0.275624         7.5001 
  50   0.0000       0.279194         7.5972 
  51   0.0000       0.280631         7.6364 
  52   0.0000       0.285611         7.7719 
  53   0.0000       0.291136         7.9222 
  54   0.0000       0.297045         8.0830 
  55   0.0000       0.314147         8.5484 
  56   0.0000       0.318297         8.6613 
  57   0.0000       0.336877         9.1669 
  58   0.0000       0.342960         9.3324 
  59   0.0000       0.350140         9.5278 
  60   0.0000       0.352805         9.6003 
  61   0.0000       0.360239         9.8026 
  62   0.0000       0.382778        10.4159 
  63   0.0000       0.389977        10.6118 
  64   0.0000       0.404033        10.9943 
  65   0.0000       0.414076        11.2676 
  66   0.0000       0.430055        11.7024 
  67   0.0000       0.441918        12.0252 
  68   0.0000       0.455262        12.3883 
  69   0.0000       0.459535        12.5046 
  70   0.0000       0.459869        12.5137 
  71   0.0000       0.463351        12.6084 
  72   0.0000       0.464310        12.6345 
  73   0.0000       0.477790        13.0013 
  74   0.0000       0.483585        13.1590 
  75   0.0000       0.507932        13.8215 
  76   0.0000       0.520332        14.1590 
  77   0.0000       0.526858        14.3365 
  78   0.0000       0.531745        14.4695 
  79   0.0000       0.562077        15.2949 
  80   0.0000       0.591052        16.0833 
  81   0.0000       0.591340        16.0912 
  82   0.0000       0.595799        16.2125 
  83   0.0000       0.604005        16.4358 
  84   0.0000       0.614506        16.7216 
  85   0.0000       0.614594        16.7240 
  86   0.0000       0.619453        16.8562 
  87   0.0000       0.625628        17.0242 
  88   0.0000       0.629131        17.1195 
  89   0.0000       0.646010        17.5788 
  90   0.0000       0.666867        18.1464 
  91   0.0000       0.668624        18.1942 
  92   0.0000       0.679608        18.4931 
  93   0.0000       0.685872        18.6635 
  94   0.0000       0.690460        18.7884 
  95   0.0000       0.703343        19.1389 
  96   0.0000       0.704647        19.1744 
  97   0.0000       0.708107        19.2686 
  98   0.0000       0.715738        19.4762 
  99   0.0000       0.717764        19.5313 
 100   0.0000       0.718687        19.5565 
 101   0.0000       0.732484        19.9319 
 102   0.0000       0.736337        20.0367 
 103   0.0000       0.749829        20.4039 
 104   0.0000       0.781524        21.2664 
 105   0.0000       0.794177        21.6106 
 106   0.0000       0.805716        21.9247 
 107   0.0000       0.806340        21.9416 
 108   0.0000       0.825181        22.4543 
 109   0.0000       0.851803        23.1787 
 110   0.0000       0.853163        23.2157 
 111   0.0000       0.869028        23.6475 
 112   0.0000       0.870279        23.6815 
 113   0.0000       0.881501        23.9869 
 114   0.0000       0.897784        24.4299 
 115   0.0000       0.899109        24.4660 
 116   0.0000       0.904966        24.6254 
 117   0.0000       0.935006        25.4428 
 118   0.0000       0.960824        26.1453 
 119   0.0000       0.962469        26.1901 
 120   0.0000       0.963368        26.2146 
 121   0.0000       0.977953        26.6115 
 122   0.0000       0.982458        26.7340 
 123   0.0000       0.994501        27.0618 
 124   0.0000       1.003829        27.3156 
 125   0.0000       1.012981        27.5646 
 126   0.0000       1.021065        27.7846 
 127   0.0000       1.036937        28.2165 
 128   0.0000       1.053424        28.6651 
 129   0.0000       1.064773        28.9739 
 130   0.0000       1.083680        29.4884 
 131   0.0000       1.117085        30.3974 
 132   0.0000       1.138190        30.9717 
 133   0.0000       1.176735        32.0206 
 134   0.0000       1.186578        32.2884 
 135   0.0000       1.186857        32.2960 
 136   0.0000       1.196241        32.5514 
 137   0.0000       1.197087        32.5744 
 138   0.0000       1.215058        33.0634 
 139   0.0000       1.216899        33.1135 
 140   0.0000       1.228895        33.4399 
 141   0.0000       1.229204        33.4483 
 142   0.0000       1.231440        33.5092 
 143   0.0000       1.262434        34.3526 
 144   0.0000       1.267641        34.4943 
 145   0.0000       1.286002        34.9939 
 146   0.0000       1.287152        35.0252 
 147   0.0000       1.287730        35.0409 
 148   0.0000       1.304578        35.4994 
 149   0.0000       1.342831        36.5403 
 150   0.0000       1.359943        37.0059 
 151   0.0000       1.365215        37.1494 
 152   0.0000       1.376994        37.4699 
 153   0.0000       1.394195        37.9380 
 154   0.0000       1.404940        38.2304 
 155   0.0000       1.410329        38.3770 
 156   0.0000       1.456619        39.6366 
 157   0.0000       1.466063        39.8936 
 158   0.0000       1.466659        39.9098 
 159   0.0000       1.466688        39.9106 
 160   0.0000       1.472458        40.0676 
 161   0.0000       1.480492        40.2862 
 162   0.0000       1.508120        41.0380 
 163   0.0000       1.514282        41.2057 
 164   0.0000       1.539083        41.8806 
 165   0.0000       1.545984        42.0684 
 166   0.0000       1.589398        43.2497 
 167   0.0000       1.612783        43.8861 
 168   0.0000       1.621963        44.1359 
 169   0.0000       1.658153        45.1206 
 170   0.0000       1.676562        45.6216 
 171   0.0000       1.701298        46.2947 
 172   0.0000       1.723247        46.8919 
 173   0.0000       1.749774        47.6138 
 174   0.0000       1.768617        48.1265 
 175   0.0000       1.844636        50.1951 
 176   0.0000       1.850987        50.3679 
 177   0.0000       1.875834        51.0440 
 178   0.0000       1.902716        51.7755 
 179   0.0000       2.115152        57.5562 
 180   0.0000       2.155243        58.6471 
 181   0.0000       2.162960        58.8571 
 182   0.0000       2.164029        58.8862 
 183   0.0000       2.170293        59.0567 
 184   0.0000       2.211073        60.1663 
 185   0.0000       2.216651        60.3181 
 186   0.0000       2.217047        60.3289 
 187   0.0000       2.245651        61.1073 
 188   0.0000       2.256240        61.3954 
 189   0.0000       2.283267        62.1309 
 190   0.0000       2.298778        62.5529 
 191   0.0000       2.330682        63.4211 
 192   0.0000       2.336766        63.5866 
 193   0.0000       2.362290        64.2812 
 194   0.0000       2.417543        65.7847 
 195   0.0000       2.419047        65.8256 
 196   0.0000       2.430651        66.1414 
 197   0.0000       2.468160        67.1621 
 198   0.0000       2.469147        67.1889 
 199   0.0000       2.530524        68.8590 
 200   0.0000       2.535653        68.9986 
 201   0.0000       2.549617        69.3786 
 202   0.0000       2.601316        70.7854 
 203   0.0000       2.701654        73.5158 
 204   0.0000       2.705091        73.6093 
 205   0.0000       2.725357        74.1607 
 206   0.0000       2.748016        74.7773 
 207   0.0000       2.755872        74.9911 
 208   0.0000       2.767923        75.3190 
 209   0.0000       2.905819        79.0714 
 210   0.0000       2.935405        79.8764 
 211   0.0000       2.953399        80.3661 
 212   0.0000       2.958437        80.5032 
 213   0.0000       3.092560        84.1528 
 214   0.0000       3.133065        85.2550 
 215   0.0000       3.151001        85.7431 
 216   0.0000       3.227595        87.8273 
 217   0.0000       3.266330        88.8814 
 218   0.0000       3.334252        90.7296 
 219   0.0000       3.353278        91.2473 
 220   0.0000       3.450308        93.8877 
 221   0.0000       3.517648        95.7201 
 222   0.0000       3.593564        97.7859 
 223   0.0000       3.607532        98.1659 
 224   0.0000       3.616136        98.4001 
 225   0.0000       3.651594        99.3649 
 226   0.0000       3.712217       101.0146 
 227   0.0000       3.721361       101.2634 
 228   0.0000       3.844276       104.6081 
 229   0.0000       3.860189       105.0411 
 230   0.0000       3.894231       105.9674 
 231   0.0000       3.921355       106.7055 
 232   0.0000       3.938745       107.1787 
 233   0.0000       4.125056       112.2485 
 234   0.0000       4.945112       134.5633 
 235   0.0000       5.059096       137.6650 
 236   0.0000       5.102734       138.8525 
 237   0.0000       5.120015       139.3227 
 238   0.0000       5.125730       139.4782 
 239   0.0000       5.174647       140.8093 
 240   0.0000       5.188365       141.1826 
 241   0.0000       5.218016       141.9894 
 242   0.0000       5.265322       143.2767 
 243   0.0000       5.269242       143.3834 
 244   0.0000       5.272185       143.4635 
 245   0.0000       5.285566       143.8276 
 246   0.0000       5.315087       144.6309 
 247   0.0000       5.328859       145.0056 
 248   0.0000       5.339676       145.3000 
 249   0.0000       5.351293       145.6161 
 250   0.0000       5.361157       145.8845 
 251   0.0000       5.430263       147.7650 
 252   0.0000       5.456059       148.4669 
 253   0.0000       5.473270       148.9353 
 254   0.0000       5.570622       151.5843 
 255   0.0000       5.612588       152.7263 
 256   0.0000       5.634764       153.3297 
 257   0.0000       5.753724       156.5668 
 258   0.0000       5.791003       157.5812 
 259   0.0000       5.793885       157.6596 
 260   0.0000       5.873445       159.8246 
 261   0.0000       5.925720       161.2470 
 262   0.0000       5.927993       161.3089 
 263   0.0000       5.955217       162.0497 
 264   0.0000       5.978906       162.6943 
 265   0.0000       5.988524       162.9560 
 266   0.0000       6.041042       164.3851 
 267   0.0000       6.113796       166.3649 
 268   0.0000       6.147450       167.2806 
 269   0.0000       6.150327       167.3589 
 270   0.0000       6.188428       168.3957 
 271   0.0000       6.222277       169.3168 
 272   0.0000       6.338317       172.4744 
 273   0.0000       6.383811       173.7123 
 274   0.0000       6.432654       175.0414 
 275   0.0000       6.442098       175.2984 
 276   0.0000       6.947059       189.0391 
 277   0.0000       6.971061       189.6922 
 278   0.0000       6.978012       189.8814 
 279   0.0000       7.035166       191.4366 
 280   0.0000       7.063350       192.2035 
 281   0.0000       7.084420       192.7769 
 282   0.0000       7.099525       193.1879 
 283   0.0000       7.111971       193.5266 
 284   0.0000       7.120411       193.7562 
 285   0.0000       7.131699       194.0634 
 286   0.0000       7.142491       194.3571 
 287   0.0000       7.303069       198.7266 
 288   0.0000       7.340742       199.7518 
 289   0.0000       7.360991       200.3028 
 290   0.0000       7.643026       207.9773 
 291   0.0000       7.682905       209.0625 
 292   0.0000       7.782452       211.7713 
 293   0.0000       7.857388       213.8104 
 294   0.0000       7.878450       214.3835 
 295   0.0000       7.903648       215.0692 
 296   0.0000       8.263439       224.8596 
 297   0.0000       8.399220       228.5544 
 298   0.0000       8.412256       228.9091 
 299   0.0000       8.454908       230.0698 
 300   0.0000       8.556128       232.8241 
 301   0.0000       8.616080       234.4554 
 302   0.0000       8.658838       235.6190 
 303   0.0000       8.705545       236.8899 
 304   0.0000       8.712437       237.0775 
 305   0.0000       8.787314       239.1150 
 306   0.0000       8.896126       242.0759 
 307   0.0000       9.063045       246.6180 
 308   0.0000       9.199173       250.3222 
 309   0.0000       9.735467       264.9155 
 310   0.0000       9.848942       268.0033 
 311   0.0000      11.658974       317.2568 
 312   0.0000      11.717102       318.8386 
 313   0.0000      11.774377       320.3971 
 314   0.0000      11.801318       321.1302 
 315   0.0000      11.815550       321.5175 
 316   0.0000      12.127366       330.0024 
 317   0.0000      12.220303       332.5314 
 318   0.0000      12.226027       332.6871 
 319   0.0000      12.259112       333.5874 
 320   0.0000      12.279074       334.1306 
 321   0.0000      12.350234       336.0670 
 322   0.0000      12.373721       336.7061 
 323   0.0000      12.386163       337.0446 
 324   0.0000      12.397478       337.3525 
 325   0.0000      12.584624       342.4450 
 326   0.0000      12.619385       343.3909 
 327   0.0000      12.620926       343.4329 
 328   0.0000      12.626231       343.5772 
 329   0.0000      12.632979       343.7608 
 330   0.0000      12.633725       343.7811 
 331   0.0000      12.641747       343.9994 
 332   0.0000      12.641915       344.0040 
 333   0.0000      12.642203       344.0118 
 334   0.0000      12.644139       344.0645 
 335   0.0000      12.657455       344.4269 
 336   0.0000      12.734121       346.5131 
 337   0.0000      12.734725       346.5295 
 338   0.0000      12.824865       348.9823 
 339   0.0000      12.870958       350.2366 
 340   0.0000      12.898785       350.9938 
 341   0.0000      12.946188       352.2837 
 342   0.0000      12.968205       352.8828 
 343   0.0000      12.992806       353.5522 
 344   0.0000      13.112303       356.8039 
 345   0.0000      13.138249       357.5099 
 346   0.0000      13.175304       358.5183 
 347   0.0000      13.225604       359.8870 
 348   0.0000      13.430213       365.4547 
 349   0.0000      13.518238       367.8500 
 350   0.0000      14.245163       387.6306 
 351   0.0000      14.270765       388.3272 
 352   0.0000      14.366181       390.9237 
 353   0.0000      14.409308       392.0972 
 354   0.0000      14.621998       397.8848 
 355   0.0000      14.623305       397.9203 
 356   0.0000      14.961227       407.1157 
 357   0.0000      14.962256       407.1437 
 358   0.0000      14.974410       407.4744 
 359   0.0000      14.986809       407.8118 
 360   0.0000      15.056136       409.6983 
 361   0.0000      15.111012       411.1915 
 362   0.0000      15.132605       411.7791 
 363   0.0000      15.218094       414.1054 
 364   0.0000      15.359860       417.9630 
 365   0.0000      15.381131       418.5419 
 366   0.0000      15.422197       419.6593 
 367   0.0000      15.531122       422.6233 
 368   0.0000      15.563439       423.5027 
 369   0.0000      15.658620       426.0927 
 370   0.0000      15.808117       430.1607 
 371   0.0000      16.060894       437.0391 
 372   0.0000      17.004436       462.7142 
 373   0.0000      17.026232       463.3073 
 374   0.0000      17.171902       467.2712 
 375   0.0000      17.625864       479.6241 
 376   0.0000      18.292980       497.7773 
 377   0.0000      20.064682       545.9878 
 378   0.0000      20.069709       546.1246 
 379   0.0000      20.069828       546.1278 
 380   0.0000      20.070212       546.1382 
 381   0.0000      20.072100       546.1896 
 382   0.0000      20.124569       547.6174 
 383   0.0000      20.133313       547.8553 
 384   0.0000      20.149324       548.2910 
 385   0.0000      20.409384       555.3676 
 386   0.0000      20.418043       555.6032 
 387   0.0000      20.497888       557.7759 
 388   0.0000      20.573693       559.8386 
 389   0.0000      21.051290       572.8347 
 390   0.0000      21.088015       573.8341 
 391   0.0000      21.109362       574.4149 
 392   0.0000      21.151014       575.5483 
 393   0.0000      21.617517       588.2425 
 394   0.0000      21.812966       593.5610 
 395   0.0000      30.274424       823.8090 
 396   0.0000      30.337529       825.5261 
 397   0.0000      30.377140       826.6040 
 398   0.0000      30.398388       827.1822 
 399   0.0000      30.509404       830.2031 
 400   0.0000      30.522616       830.5626 
 401   0.0000      30.523851       830.5962 
 402   0.0000      30.722800       836.0099 
 403   0.0000      31.109164       846.5234 
 404   0.0000      31.145808       847.5205 
 405   0.0000      32.324240       879.5873 
 406   0.0000      41.481602      1128.7718 
 407   0.0000      41.502126      1129.3303 
 408   0.0000      41.581648      1131.4942 
 409   0.0000      41.653001      1133.4358 
 410   0.0000      41.781155      1136.9230 
 411   0.0000      41.793778      1137.2665 
 412   0.0000      42.775954      1163.9929 
 413   0.0000      42.788675      1164.3390 
 414   0.0000      62.382521      1697.5147 
 415   0.0000      62.385586      1697.5981 
 416   0.0000      62.446007      1699.2422 
 417   0.0000      62.658632      1705.0281 
 418   0.0000      63.019647      1714.8518 
 419   0.0000      91.213160      2482.0363 
 420   0.0000      91.263567      2483.4079 
 421   0.0000      91.283475      2483.9496 
 422   0.0000      91.298560      2484.3601 
 423   0.0000      91.375848      2486.4632 
 424   0.0000      91.381681      2486.6220 
 425   0.0000      91.385918      2486.7373 
 426   0.0000      91.526059      2490.5507 
 427   0.0000      91.796147      2497.9001 
 428   0.0000      91.824527      2498.6724 
 429   0.0000     201.573361      5485.0900 
 430   0.0000     201.613244      5486.1753 

                    ********************************
                    * MULLIKEN POPULATION ANALYSIS *
                    ********************************

--------------------------------------------
MULLIKEN ATOMIC CHARGES AND SPIN POPULATIONS
--------------------------------------------
   0 S :    0.102565    0.000000
   1 F :   -0.051282    0.000000
   2 F :   -0.051282   -0.000000
Sum of atomic charges         :   -0.0000000
Sum of atomic spin populations:    0.0000000

-----------------------------------------------------
MULLIKEN REDUCED ORBITAL CHARGES AND SPIN POPULATIONS
-----------------------------------------------------
CHARGE
  0 S s       :     6.050903  s :     6.050903
      pz      :     2.774368  p :     9.413668
      px      :     4.033566
      py      :     2.605734
      dz2     :     0.066014  d :     0.353810
      dxz     :     0.057843
      dyz     :     0.102671
      dx2y2   :     0.060343
      dxy     :     0.066939
      f0      :     0.006279  f :     0.065711
      f+1     :     0.001771
      f-1     :     0.022233
      f+2     :     0.011936
      f-2     :     0.011737
      f+3     :     0.006858
      f-3     :     0.004898
      g0      :     0.000744  g :     0.011655
      g+1     :    -0.000001
      g-1     :     0.002642
      g+2     :     0.002336
      g-2     :     0.000172
      g+3     :     0.002601
      g-3     :     0.001578
      g+4     :     0.000676
      g-4     :     0.000907
      h0      :     0.000292  h :     0.001689
      h+1     :     0.000033
      h-1     :     0.000208
      h+2     :     0.000414
      h-2     :    -0.000060
      h+3     :     0.000106
      h-3     :     0.000258
      h+4     :     0.000265
      h-4     :     0.000167
      h+5     :     0.000026
      h-5     :    -0.000020
  1 F s       :     3.866860  s :     3.866860
      pz      :     1.640933  p :     5.168169
      px      :     1.902211
      py      :     1.625024
      dz2     :     0.003688  d :     0.015369
      dxz     :     0.003872
      dyz     :     0.002423
      dx2y2   :     0.004115
      dxy     :     0.001271
      f0      :    -0.000129  f :    -0.000039
      f+1     :    -0.000145
      f-1     :     0.000037
      f+2     :    -0.000267
      f-2     :    -0.000084
      f+3     :     0.000405
      f-3     :     0.000145
      g0      :    -0.000175  g :     0.000495
      g+1     :    -0.000015
      g-1     :     0.000208
      g+2     :    -0.000087
      g-2     :     0.000090
      g+3     :     0.000470
      g-3     :    -0.000149
      g+4     :    -0.000142
      g-4     :     0.000296
      h0      :     0.000087  h :     0.000429
      h+1     :    -0.000023
      h-1     :    -0.000063
      h+2     :     0.000202
      h-2     :     0.000006
      h+3     :     0.000147
      h-3     :    -0.000033
      h+4     :     0.000003
      h-4     :     0.000100
      h+5     :     0.000068
      h-5     :    -0.000066
  2 F s       :     3.866861  s :     3.866861
      pz      :     1.640933  p :     5.168167
      px      :     1.902211
      py      :     1.625023
      dz2     :     0.003688  d :     0.015369
      dxz     :     0.003872
      dyz     :     0.002423
      dx2y2   :     0.004115
      dxy     :     0.001271
      f0      :    -0.000129  f :    -0.000039
      f+1     :    -0.000145
      f-1     :     0.000037
      f+2     :    -0.000267
      f-2     :    -0.000084
      f+3     :     0.000405
      f-3     :     0.000145
      g0      :    -0.000175  g :     0.000495
      g+1     :    -0.000015
      g-1     :     0.000208
      g+2     :    -0.000087
      g-2     :     0.000090
      g+3     :     0.000470
      g-3     :    -0.000149
      g+4     :    -0.000142
      g-4     :     0.000296
      h0      :     0.000087  h :     0.000429
      h+1     :    -0.000023
      h-1     :    -0.000063
      h+2     :     0.000202
      h-2     :     0.000006
      h+3     :     0.000147
      h-3     :    -0.000033
      h+4     :     0.000003
      h-4     :     0.000100
      h+5     :     0.000068
      h-5     :    -0.000066

SPIN
  0 S s       :     0.000000  s :     0.000000
      pz      :     0.000000  p :     0.000000
      px      :     0.000000
      py      :    -0.000000
      dz2     :    -0.000000  d :    -0.000000
      dxz     :    -0.000000
      dyz     :    -0.000000
      dx2y2   :     0.000000
      dxy     :    -0.000000
      f0      :    -0.000000  f :    -0.000000
      f+1     :     0.000000
      f-1     :    -0.000000
      f+2     :     0.000000
      f-2     :    -0.000000
      f+3     :     0.000000
      f-3     :    -0.000000
      g0      :     0.000000  g :    -0.000000
      g+1     :    -0.000000
      g-1     :    -0.000000
      g+2     :     0.000000
      g-2     :    -0.000000
      g+3     :     0.000000
      g-3     :    -0.000000
      g+4     :     0.000000
      g-4     :     0.000000
      h0      :     0.000000  h :     0.000000
      h+1     :     0.000000
      h-1     :    -0.000000
      h+2     :     0.000000
      h-2     :    -0.000000
      h+3     :     0.000000
      h-3     :    -0.000000
      h+4     :    -0.000000
      h-4     :     0.000000
      h+5     :     0.000000
      h-5     :     0.000000
  1 F s       :     0.000000  s :     0.000000
      pz      :    -0.000000  p :    -0.000000
      px      :    -0.000000
      py      :     0.000000
      dz2     :     0.000000  d :    -0.000000
      dxz     :    -0.000000
      dyz     :    -0.000000
      dx2y2   :    -0.000000
      dxy     :    -0.000000
      f0      :    -0.000000  f :    -0.000000
      f+1     :    -0.000000
      f-1     :     0.000000
      f+2     :    -0.000000
      f-2     :    -0.000000
      f+3     :    -0.000000
      f-3     :    -0.000000
      g0      :     0.000000  g :    -0.000000
      g+1     :     0.000000
      g-1     :    -0.000000
      g+2     :    -0.000000
      g-2     :    -0.000000
      g+3     :    -0.000000
      g-3     :     0.000000
      g+4     :    -0.000000
      g-4     :    -0.000000
      h0      :    -0.000000  h :    -0.000000
      h+1     :    -0.000000
      h-1     :     0.000000
      h+2     :    -0.000000
      h-2     :     0.000000
      h+3     :    -0.000000
      h-3     :    -0.000000
      h+4     :    -0.000000
      h-4     :    -0.000000
      h+5     :     0.000000
      h-5     :    -0.000000
  2 F s       :    -0.000000  s :    -0.000000
      pz      :    -0.000000  p :    -0.000000
      px      :    -0.000000
      py      :    -0.000000
      dz2     :    -0.000000  d :    -0.000000
      dxz     :    -0.000000
      dyz     :    -0.000000
      dx2y2   :    -0.000000
      dxy     :    -0.000000
      f0      :    -0.000000  f :    -0.000000
      f+1     :    -0.000000
      f-1     :     0.000000
      f+2     :    -0.000000
      f-2     :    -0.000000
      f+3     :    -0.000000
      f-3     :     0.000000
      g0      :     0.000000  g :     0.000000
      g+1     :     0.000000
      g-1     :    -0.000000
      g+2     :     0.000000
      g-2     :    -0.000000
      g+3     :    -0.000000
      g-3     :     0.000000
      g+4     :     0.000000
      g-4     :     0.000000
      h0      :    -0.000000  h :     0.000000
      h+1     :    -0.000000
      h-1     :     0.000000
      h+2     :    -0.000000
      h-2     :    -0.000000
      h+3     :    -0.000000
      h-3     :    -0.000000
      h+4     :     0.000000
      h-4     :    -0.000000
      h+5     :     0.000000
      h-5     :     0.000000


                     *******************************
                     * LOEWDIN POPULATION ANALYSIS *
                     *******************************

-------------------------------------------
LOEWDIN ATOMIC CHARGES AND SPIN POPULATIONS
-------------------------------------------
   0 S :    1.325522    0.000000
   1 F :   -0.662761   -0.000000
   2 F :   -0.662761   -0.000000

----------------------------------------------------
LOEWDIN REDUCED ORBITAL CHARGES AND SPIN POPULATIONS
----------------------------------------------------
CHARGE
  0 S s       :     4.927573  s :     4.927573
      pz      :     2.664982  p :     8.325097
      px      :     3.174773
      py      :     2.485343
      dz2     :     0.119673  d :     0.751885
      dxz     :     0.103975
      dyz     :     0.265817
      dx2y2   :     0.152096
      dxy     :     0.110324
      f0      :     0.046641  f :     0.417032
      f+1     :     0.008071
      f-1     :     0.123586
      f+2     :     0.101962
      f-2     :     0.065600
      f+3     :     0.037448
      f-3     :     0.033723
      g0      :     0.014214  g :     0.185426
      g+1     :     0.000023
      g-1     :     0.040994
      g+2     :     0.032112
      g-2     :     0.014507
      g+3     :     0.034904
      g-3     :     0.029120
      g+4     :     0.009371
      g-4     :     0.010181
      h0      :     0.005156  h :     0.067466
      h+1     :     0.000574
      h-1     :     0.009501
      h+2     :     0.009838
      h-2     :     0.000700
      h+3     :     0.009314
      h-3     :     0.011261
      h+4     :     0.007822
      h-4     :     0.008922
      h+5     :     0.002701
      h-5     :     0.001677
  1 F s       :     3.532828  s :     3.532828
      pz      :     1.637160  p :     5.085183
      px      :     1.780595
      py      :     1.667428
      dz2     :     0.052057  d :     0.412177
      dxz     :     0.081314
      dyz     :     0.123668
      dx2y2   :     0.061090
      dxy     :     0.094047
      f0      :     0.017619  f :     0.288422
      f+1     :     0.014996
      f-1     :     0.073300
      f+2     :     0.041845
      f-2     :     0.066988
      f+3     :     0.040904
      f-3     :     0.032770
      g0      :     0.013342  g :     0.205330
      g+1     :     0.000248
      g-1     :     0.035188
      g+2     :     0.034198
      g-2     :     0.023923
      g+3     :     0.030661
      g-3     :     0.019895
      g+4     :     0.022958
      g-4     :     0.024916
      h0      :     0.010305  h :     0.138820
      h+1     :     0.000587
      h-1     :     0.011954
      h+2     :     0.021282
      h-2     :     0.001334
      h+3     :     0.018286
      h-3     :     0.016575
      h+4     :     0.013219
      h-4     :     0.010597
      h+5     :     0.019595
      h-5     :     0.015086
  2 F s       :     3.532828  s :     3.532828
      pz      :     1.637160  p :     5.085183
      px      :     1.780595
      py      :     1.667428
      dz2     :     0.052057  d :     0.412177
      dxz     :     0.081314
      dyz     :     0.123668
      dx2y2   :     0.061090
      dxy     :     0.094047
      f0      :     0.017619  f :     0.288422
      f+1     :     0.014996
      f-1     :     0.073300
      f+2     :     0.041845
      f-2     :     0.066988
      f+3     :     0.040904
      f-3     :     0.032770
      g0      :     0.013342  g :     0.205330
      g+1     :     0.000248
      g-1     :     0.035188
      g+2     :     0.034198
      g-2     :     0.023923
      g+3     :     0.030661
      g-3     :     0.019895
      g+4     :     0.022958
      g-4     :     0.024916
      h0      :     0.010305  h :     0.138820
      h+1     :     0.000587
      h-1     :     0.011954
      h+2     :     0.021282
      h-2     :     0.001334
      h+3     :     0.018286
      h-3     :     0.016575
      h+4     :     0.013219
      h-4     :     0.010597
      h+5     :     0.019595
      h-5     :     0.015086

SPIN
  0 S s       :     0.000000  s :     0.000000
      pz      :    -0.000000  p :    -0.000000
      px      :     0.000000
      py      :    -0.000000
      dz2     :     0.000000  d :    -0.000000
      dxz     :     0.000000
      dyz     :    -0.000000
      dx2y2   :    -0.000000
      dxy     :     0.000000
      f0      :     0.000000  f :    -0.000000
      f+1     :     0.000000
      f-1     :     0.000000
      f+2     :    -0.000000
      f-2     :    -0.000000
      f+3     :     0.000000
      f-3     :    -0.000000
      g0      :    -0.000000  g :    -0.000000
      g+1     :    -0.000000
      g-1     :    -0.000000
      g+2     :    -0.000000
      g-2     :    -0.000000
      g+3     :    -0.000000
      g-3     :     0.000000
      g+4     :     0.000000
      g-4     :     0.000000
      h0      :    -0.000000  h :    -0.000000
      h+1     :     0.000000
      h-1     :     0.000000
      h+2     :    -0.000000
      h-2     :     0.000000
      h+3     :    -0.000000
      h-3     :    -0.000000
      h+4     :    -0.000000
      h-4     :    -0.000000
      h+5     :     0.000000
      h-5     :     0.000000
  1 F s       :    -0.000000  s :    -0.000000
      pz      :    -0.000000  p :    -0.000000
      px      :    -0.000000
      py      :     0.000000
      dz2     :     0.000000  d :     0.000000
      dxz     :     0.000000
      dyz     :     0.000000
      dx2y2   :     0.000000
      dxy     :    -0.000000
      f0      :    -0.000000  f :    -0.000000
      f+1     :    -0.000000
      f-1     :     0.000000
      f+2     :    -0.000000
      f-2     :    -0.000000
      f+3     :     0.000000
      f-3     :    -0.000000
      g0      :     0.000000  g :     0.000000
      g+1     :     0.000000
      g-1     :    -0.000000
      g+2     :     0.000000
      g-2     :     0.000000
      g+3     :    -0.000000
      g-3     :     0.000000
      g+4     :     0.000000
      g-4     :     0.000000
      h0      :     0.000000  h :    -0.000000
      h+1     :    -0.000000
      h-1     :    -0.000000
      h+2     :    -0.000000
      h-2     :    -0.000000
      h+3     :    -0.000000
      h-3     :     0.000000
      h+4     :     0.000000
      h-4     :    -0.000000
      h+5     :     0.000000
      h-5     :     0.000000
  2 F s       :    -0.000000  s :    -0.000000
      pz      :     0.000000  p :     0.000000
      px      :    -0.000000
      py      :    -0.000000
      dz2     :    -0.000000  d :    -0.000000
      dxz     :    -0.000000
      dyz     :    -0.000000
      dx2y2   :    -0.000000
      dxy     :     0.000000
      f0      :     0.000000  f :     0.000000
      f+1     :    -0.000000
      f-1     :     0.000000
      f+2     :    -0.000000
      f-2     :    -0.000000
      f+3     :     0.000000
      f-3     :    -0.000000
      g0      :     0.000000  g :     0.000000
      g+1     :     0.000000
      g-1     :     0.000000
      g+2     :     0.000000
      g-2     :    -0.000000
      g+3     :     0.000000
      g-3     :     0.000000
      g+4     :     0.000000
      g-4     :     0.000000
      h0      :     0.000000  h :    -0.000000
      h+1     :     0.000000
      h-1     :     0.000000
      h+2     :    -0.000000
      h-2     :    -0.000000
      h+3     :    -0.000000
      h-3     :    -0.000000
      h+4     :     0.000000
      h-4     :    -0.000000
      h+5     :     0.000000
      h-5     :     0.000000


                      *****************************
                      * MAYER POPULATION ANALYSIS *
                      *****************************

  NA   - Mulliken gross atomic population
  ZA   - Total nuclear charge
  QA   - Mulliken gross atomic charge
  VA   - Mayer's total valence
  BVA  - Mayer's bonded valence
  FA   - Mayer's free valence

  ATOM       NA         ZA         QA         VA         BVA        FA
  0 S     15.8974    16.0000     0.1026     2.0334     2.0334    -0.0000
  1 F      9.0513     9.0000    -0.0513     1.0467     1.0467    -0.0000
  2 F      9.0513     9.0000    -0.0513     1.0467     1.0467    -0.0000

  Mayer bond orders larger than 0.1
B(  0-S ,  1-F ) :   1.0167 B(  0-S ,  2-F ) :   1.0167 

-------
TIMINGS
-------

Total SCF time: 0 days 1 hours 46 min 54 sec 

Total time                  ....    6414.534 sec
Sum of individual times     ....    6413.565 sec  (100.0%)

Fock matrix formation       ....    6401.308 sec  ( 99.8%)
  XC integration            ....     135.939 sec  (  2.1% of F)
    Basis function eval.    ....      10.199 sec  (  7.5% of XC)
    Density eval.           ....      29.995 sec  ( 22.1% of XC)
    XC-Functional eval.     ....       1.223 sec  (  0.9% of XC)
    XC-Potential eval.      ....      93.659 sec  ( 68.9% of XC)
Diagonalization             ....       1.892 sec  (  0.0%)
Density matrix formation    ....       0.046 sec  (  0.0%)
Population analysis         ....       0.160 sec  (  0.0%)
Initial guess               ....       6.301 sec  (  0.1%)
Orbital Transformation      ....       0.000 sec  (  0.0%)
Orbital Orthonormalization  ....       0.000 sec  (  0.0%)
DIIS solution               ....       0.819 sec  (  0.0%)
Grid generation             ....       3.039 sec  (  0.0%)

-------------------------   --------------------
FINAL SINGLE POINT ENERGY      -597.611847663570
-------------------------   --------------------


                            ***************************************
                            *     ORCA property calculations      *
                            ***************************************

                                    ---------------------
                                    Active property flags
                                    ---------------------
   (+) Dipole Moment
   (+) Polarizability


------------------------------------------------------------------------------
                       ORCA ELECTRIC PROPERTIES CALCULATION
------------------------------------------------------------------------------

Dipole Moment Calculation                       ... on
Quadrupole Moment Calculation                   ... off
Polarizability Calculation                      ... Analytic (CP-SCF)
GBWName                                         ... sf2_pbe.gbw
Electron density file                           ... sf2_pbe.scfp.tmp
The origin for moment calculation is the CENTER OF MASS  = ( 0.000000,  0.000000 -0.025517)

-------------
DIPOLE MOMENT
-------------
                                X             Y             Z
Electronic contribution:     -0.00000      -0.00000      -0.55276
Nuclear contribution   :      0.00000       0.00000       0.86645
                        -----------------------------------------
Total Dipole Moment    :     -0.00000      -0.00000       0.31370
                        -----------------------------------------
Magnitude (a.u.)       :      0.31370
Magnitude (Debye)      :      0.79735



--------------------
Rotational spectrum 
--------------------
 
Rotational constants in cm-1:     0.894622     0.308875     0.229603 
Rotational constants in MHz : 26820.080967  9259.843531  6883.322421 

 Dipole components along the rotational axes: 
x,y,z [a.u.] :    -0.000000     0.313695    -0.000000 
x,y,z [Debye]:    -0.000000     0.797350    -0.000000 

 
Transforming and storing MO dipole integrals   ... done

                ... starting polarizability calculation

Opening the Dipole integral file               ... (sf2_pbe.dmo.tmp) done
Reading Dipole-MO integrals                    ... done
Solving CP-SCF equations                       ... 
------------------------------------------------------------------------------
                           ORCA CP-SCF CALCULATION
------------------------------------------------------------------------------

Input orbitals are from        ... sf2_pbe.gbw
Input Perturbation             ... sf2_pbe.cpv.tmp
Wavefunction output            ... sf2_pbe.cpu.tmp
Perturbation mode              ... Real perturbation (singlet)
Solver                         ... POPLE
Max. number of iterations      ... 200
Convergence tolerance          ... 1.000e-06
Integral handling              ... Direct
Number of perturbations        ... 3
Number of operators            ... 2
Orbital ranges used for CP-SCF:
 Operator 0:  Orbitals   0... 16  to  17...430
 Operator 1:  Orbitals   0... 16  to  17...430
DFT calculation                         ... on
Exchange functional (SCF)               ... PBE
Exchange functional (CP-SCF)            ... PBE
   PBE kappa parameter  XKappa (SCF)    ...  0.804000
   PBE kappa parameter  XKappa (CP-SCF) ...  0.804000
   PBE mue parameter   XMuePBE (SCF)    ...  0.219520
   PBE mue parameter   XMuePBE (CP-SCF) ...  0.219520
Correlation functional (SCF)            ... PBE
Correlation functional (CP-SCF)         ... PBE
   PBE beta parameter CBetaPBE (SCF)    ...  0.066725
   PBE beta parameter CBetaPBE (CP-SCF) ...  0.066725
 LDA part of GGA corr.  LDAOpt (SCF)    ... PW91-LDA
 LDA part of GGA corr.  LDAOpt (CP-SCF) ... PW91-LDA
Variables per vector in CP-SCF ... 14076
Number of vectors sought       ... 3
Recalculating density on grid  ... done
Calculating the xc-kernel      ... done
     CP-SCF ITERATION   0: 
     CP-SCF ITERATION   1:      0.580193940909
     CP-SCF ITERATION   2:      0.014941834612
     CP-SCF ITERATION   3:      0.000615893741
     CP-SCF ITERATION   4:      0.000013935940
     CP-SCF ITERATION   5:      0.000000137885
done
Reading CP-SCF coefficients                    ... done
Doing the polarizability tensor   ... done
Cleaning up                                    ... done

-------------------------
THE POLARIZABILITY TENSOR
-------------------------

The raw cartesian tensor (atomic units):
   24.04765      0.00000      0.00000  
    0.00000     27.26772      0.00000  
    0.00000      0.00000     24.91975  
diagonalized tensor: 
   24.04765     24.91975     27.26772  

    1.00000      0.00000      0.00000  
   -0.00000     -0.00000      1.00000  
   -0.00000      1.00000      0.00000  

Isotropic polarizability :  25.41171


Timings for individual modules:

Sum of individual times         ...    10955.840 sec (= 182.597 min)
GTO integral calculation        ...        2.319 sec (=   0.039 min)   0.0 %
SCF iterations                  ...     6414.553 sec (= 106.909 min)  58.5 %
Solution of CP-SCF eqns.        ...     4538.968 sec (=  75.649 min)  41.4 %
                             ****ORCA TERMINATED NORMALLY****
TOTAL RUN TIME: 0 days 3 hours 2 minutes 36 seconds 403 msec
