
                                 *****************
                                 * O   R   C   A *
                                 *****************

           --- An Ab Initio, DFT and Semiempirical electronic structure package ---

                  #######################################################
                  #                        -***-                        #
                  #          Department of theory and spectroscopy      #
                  #               Directorship: Frank Neese             #
                  #        Max Planck Institute fuer Kohlenforschung    #
                  #                Kaiser Wilhelm Platz 1               #
                  #                 D-45470 Muelheim/Ruhr               #
                  #                      Germany                        #
                  #                                                     #
                  #                  All rights reserved                #
                  #                        -***-                        #
                  #######################################################


                         Program Version 4.1.2  - RELEASE  -


 With contributions from (in alphabetic order):
   Daniel Aravena         : Magnetic Properties
   Michael Atanasov       : Ab Initio Ligand Field Theory
   Alexander A. Auer      : GIAO ZORA
   Ute Becker             : Parallelization
   Giovanni Bistoni       : ED, Open-shell LED
   Martin Brehm           : Molecular dynamics
   Dmytro Bykov           : SCF Hessian
   Vijay G. Chilkuri      : MRCI spin determinant printing
   Dipayan Datta          : RHF DLPNO-CCSD density
   Achintya Kumar Dutta   : EOM-CC, STEOM-CC
   Dmitry Ganyushin       : Spin-Orbit,Spin-Spin,Magnetic field MRCI
   Miquel Garcia          : C-PCM Hessian
   Yang Guo               : DLPNO-NEVPT2, CIM, IAO-localization
   Andreas Hansen         : Spin unrestricted coupled pair/coupled cluster methods
   Benjamin Helmich-Paris : CASSCF linear response (MC-RPA)
   Lee Huntington         : MR-EOM, pCC
   Robert Izsak           : Overlap fitted RIJCOSX, COSX-SCS-MP3, EOM
   Christian Kollmar      : KDIIS, OOCD, Brueckner-CCSD(T), CCSD density
   Simone Kossmann        : Meta GGA functionals, TD-DFT gradient, OOMP2, MP2 Hessian
   Martin Krupicka        : AUTO-CI
   Lucas Lang             : DCDCAS
   Dagmar Lenk            : GEPOL surface, SMD
   Dimitrios Liakos       : Extrapolation schemes; parallel MDCI
   Dimitrios Manganas     : ROCIS; embedding schemes
   Dimitrios Pantazis     : SARC Basis sets
   Taras Petrenko         : DFT Hessian,TD-DFT gradient, ASA, ECA, R-Raman, ABS, FL, XAS/XES, NRVS
   Peter Pinski           : DLPNO-MP2, DLPNO-MP2 Gradient
   Christoph Reimann      : Effective Core Potentials
   Marius Retegan         : Local ZFS, SOC
   Christoph Riplinger    : Optimizer, TS searches, QM/MM, DLPNO-CCSD(T), (RO)-DLPNO pert. Triples
   Tobias Risthaus        : Range-separated hybrids, TD-DFT gradient, RPA, STAB
   Michael Roemelt        : Restricted open shell CIS
   Masaaki Saitow         : Open-shell DLPNO
   Barbara Sandhoefer     : DKH picture change effects
   Avijit Sen             : IP-ROCIS
   Kantharuban Sivalingam : CASSCF convergence, NEVPT2, FIC-MRCI
   Bernardo de Souza      : ESD, SOC TD-DFT
   Georgi Stoychev        : AutoAux, RI-MP2 NMR
   Willem Van den Heuvel  : Paramagnetic NMR
   Boris Wezisla          : Elementary symmetry handling
   Frank Wennmohs         : Technical directorship


 We gratefully acknowledge several colleagues who have allowed us to
 interface, adapt or use parts of their codes:
   Stefan Grimme, W. Hujo, H. Kruse,             : VdW corrections, initial TS optimization,
                  C. Bannwarth                     DFT functionals, gCP, sTDA/sTD-DF
   Ed Valeev                                     : LibInt (2-el integral package), F12 methods
   Garnet Chan, S. Sharma, J. Yang, R. Olivares  : DMRG
   Ulf Ekstrom                                   : XCFun DFT Library
   Mihaly Kallay                                 : mrcc  (arbitrary order and MRCC methods)
   Andreas Klamt, Michael Diedenhofen            : otool_cosmo (COSMO solvation model)
   Jiri Pittner, Ondrej Demel                    : Mk-CCSD
   Frank Weinhold                                : gennbo (NPA and NBO analysis)
   Christopher J. Cramer and Donald G. Truhlar   : smd solvation model
   Lars Goerigk                                  : TD-DFT with DH, B97 family of functionals
   V. Asgeirsson, H. Jonsson                     : NEB implementation
   FAccTs GmbH                                   : IRC, NEB, NEB-TS, Multilevel


 Your calculation uses the libint2 library for the computation of 2-el integrals
 For citations please refer to: http://libint.valeyev.net

 This ORCA versions uses:
   CBLAS   interface :  Fast vector & matrix operations
   LAPACKE interface :  Fast linear algebra routines
   SCALAPACK package :  Parallel linear algebra routines


----- Orbital basis set information -----
Your calculation utilizes the basis: aug-pc-4
   H, C-F              : F. Jensen, J. Chem. Phys. 115, 9113 (2001).
                         F. Jensen, J. Chem. Phys. 116, 7372 (2002).
                         F. Jensen, J. Chem. Phys. 117, 9234 (2002).
   Si-Cl               : F. Jensen, T. Helgaker, J. Chem. Phys. 121, 3463 (2004).
   He-B, Ne-Mg, Al, Ar : F. Jensen, J. Phys. Chem. A 111, 11198 (2007).
   K, Ca, Ga-Kr        : F. Jensen, J. Chem. Phys. 136, 094110 (2012).
   Sc-Zn               : F. Jensen, J. Chem. Phys. 138, 014107 (2013).

================================================================================
                                        WARNINGS
                       Please study these warnings very carefully!
================================================================================


INFO   : the flag for use of LIBINT has been found!

================================================================================
                                       INPUT FILE
================================================================================
NAME = sh2_pbe.inp
|  1> !uks pbe nori aug-pc-4 grid7 nofinalgrid verytightscf
|  2> 
|  3> %maxcore 1500
|  4> 
|  5> %pal nprocs 1 end
|  6> 
|  7> %scf
|  8> 	maxiter 200
|  9> end
| 10> %elprop
| 11> 	dipole true
| 12> 	 polar 1
| 13> 	 maxiter 200
| 14> end
| 15> 
| 16> * xyz 0 1
| 17> S 0.0000 0.0000 0.1030
| 18> H 0.0000 0.9616 -0.8239
| 19> H 0.0000 -0.9616 -0.8239
| 20> *
| 21> 
| 22>                          ****END OF INPUT****
================================================================================

                       ****************************
                       * Single Point Calculation *
                       ****************************

---------------------------------
CARTESIAN COORDINATES (ANGSTROEM)
---------------------------------
  S      0.000000    0.000000    0.103000
  H      0.000000    0.961600   -0.823900
  H      0.000000   -0.961600   -0.823900

----------------------------
CARTESIAN COORDINATES (A.U.)
----------------------------
  NO LB      ZA    FRAG     MASS         X           Y           Z
   0 S    16.0000    0    32.060    0.000000    0.000000    0.194642
   1 H     1.0000    0     1.008    0.000000    1.817161   -1.556945
   2 H     1.0000    0     1.008    0.000000   -1.817161   -1.556945

--------------------------------
INTERNAL COORDINATES (ANGSTROEM)
--------------------------------
 S      0   0   0     0.000000000000     0.00000000     0.00000000
 H      1   0   0     1.335596559594     0.00000000     0.00000000
 H      1   2   0     1.335596559594    92.10531093     0.00000000

---------------------------
INTERNAL COORDINATES (A.U.)
---------------------------
 S      0   0   0     0.000000000000     0.00000000     0.00000000
 H      1   0   0     2.523911723041     0.00000000     0.00000000
 H      1   2   0     2.523911723041    92.10531093     0.00000000

---------------------
BASIS SET INFORMATION
---------------------
There are 2 groups of distinct atoms

 Group   1 Type S   : 44s27p7d4f3g2h contracted to 8s7p7d4f3g2h pattern {15121211111/111111111/1111111/1111/111/11}
 Group   2 Type H   : 12s7p4d3f2g contracted to 8s7p4d3f2g pattern {51111111/1111111/1111/111/11}

Atom   0S    basis set group =>   1
Atom   1H    basis set group =>   2
Atom   2H    basis set group =>   2
------------------------------------------------------------------------------
                           ORCA GTO INTEGRAL CALCULATION
------------------------------------------------------------------------------

                         BASIS SET STATISTICS AND STARTUP INFO

 # of primitive gaussian shells          ...  143
 # of primitive gaussian functions       ...  421
 # of contracted shells                  ...   79
 # of contracted basis functions         ...  317
 Highest angular momentum                ...    5
 Maximum contraction depth               ...   15
 Integral package used                   ... LIBINT
 Integral threshhold            Thresh   ...  1.000e-12
 Primitive cut-off              TCut     ...  1.000e-14


------------------------------ INTEGRAL EVALUATION ----------------------------


 * One electron integrals 
 Pre-screening matrix                    ... done
 Shell pair data                         ... done (   0.001 sec)

-------------------------------------------------------------------------------
                                 ORCA SCF
-------------------------------------------------------------------------------

------------
SCF SETTINGS
------------
Hamiltonian:
 Density Functional     Method          .... DFT(GTOs)
 Exchange Functional    Exchange        .... PBE
   PBE kappa parameter   XKappa         ....  0.804000
   PBE mue parameter    XMuePBE         ....  0.219520
 Correlation Functional Correlation     .... PBE
   PBE beta parameter  CBetaPBE         ....  0.066725
 LDA part of GGA corr.  LDAOpt          .... PW91-LDA
 Gradients option       PostSCFGGA      .... off
   Density functional embedding theory  .... OFF
   NL short-range parameter             ....  6.400000


General Settings:
 Integral files         IntName         .... sh2_pbe
 Hartree-Fock type      HFTyp           .... UHF
 Total Charge           Charge          ....    0
 Multiplicity           Mult            ....    1
 Number of Electrons    NEL             ....   18
 Basis Dimension        Dim             ....  317
 Nuclear Repulsion      ENuc            ....     12.9538864084 Eh

Convergence Acceleration:
 DIIS                   CNVDIIS         .... on
   Start iteration      DIISMaxIt       ....    12
   Startup error        DIISStart       ....  0.200000
   # of expansion vecs  DIISMaxEq       ....     5
   Bias factor          DIISBfac        ....   1.050
   Max. coefficient     DIISMaxC        ....  10.000
 Newton-Raphson         CNVNR           .... off
 SOSCF                  CNVSOSCF        .... off
 Level Shifting         CNVShift        .... on
   Level shift para.    LevelShift      ....    0.2500
   Turn off err/grad.   ShiftErr        ....    0.0010
 Zerner damping         CNVZerner       .... off
 Static damping         CNVDamp         .... on
   Fraction old density DampFac         ....    0.7000
   Max. Damping (<1)    DampMax         ....    0.9800
   Min. Damping (>=0)   DampMin         ....    0.0000
   Turn off err/grad.   DampErr         ....    0.1000
 Fernandez-Rico         CNVRico         .... off

SCF Procedure:
 Maximum # iterations   MaxIter         ....   200
 SCF integral mode      SCFMode         .... Direct
   Integral package                     .... LIBINT
 Reset frequency        DirectResetFreq ....    20
 Integral Threshold     Thresh          ....  1.000e-12 Eh
 Primitive CutOff       TCut            ....  1.000e-14 Eh

Convergence Tolerance:
 Convergence Check Mode ConvCheckMode   .... Total+1el-Energy
 Convergence forced     ConvForced      .... 0
 Energy Change          TolE            ....  1.000e-09 Eh
 1-El. energy change                    ....  1.000e-06 Eh
 DIIS Error             TolErr          ....  1.000e-08


Diagonalization of the overlap matrix:
Smallest eigenvalue                        ... 4.642e-06
Time for diagonalization                   ...    0.021 sec
Threshold for overlap eigenvalues          ... 1.000e-08
Number of eigenvalues below threshold      ... 0
Time for construction of square roots      ...    0.012 sec
Total time needed                          ...    0.033 sec

-------------------
DFT GRID GENERATION
-------------------

General Integration Accuracy     IntAcc      ...  5.670
Radial Grid Type                 RadialGrid  ... Gauss-Chebyshev
Angular Grid (max. acc.)         AngularGrid ... Lebedev-770
Angular grid pruning method      GridPruning ... 3 (G Style)
Weight generation scheme         WeightScheme... Becke
Basis function cutoff            BFCut       ...    1.0000e-12
Integration weight cutoff        WCut        ...    1.0000e-14
Grids for H and He will be reduced by one unit

# of grid points (after initial pruning)     ...  62864 (   0.0 sec)
# of grid points (after weights+screening)   ...  62318 (   0.0 sec)
nearest neighbour list constructed           ...    0.0 sec
Grid point re-assignment to atoms done       ...    0.0 sec
Grid point division into batches done        ...    1.1 sec
Reduced shell lists constructed in    1.8 sec

Total number of grid points                  ...    62318
Total number of batches                      ...      976
Average number of points per batch           ...       63
Average number of grid points per atom       ...    20773
Average number of shells per batch           ...    61.26 (77.55%)
Average number of basis functions per batch  ...   251.49 (79.33%)
Average number of large shells per batch     ...    55.36 (90.37%)
Average number of large basis fcns per batch ...   227.62 (90.51%)
Maximum spatial batch extension              ...  15.79, 14.35, 15.19 au
Average spatial batch extension              ...   2.26,  2.10,  2.22 au

Time for grid setup =    1.831 sec

------------------------------
INITIAL GUESS: MODEL POTENTIAL
------------------------------
Loading Hartree-Fock densities                     ... done
Calculating cut-offs                               ... done
Setting up the integral package                    ... done
Initializing the effective Hamiltonian             ... done
Starting the Coulomb interaction                   ... done (   0.1 sec)
Reading the grid                                   ... done
Mapping shells                                     ... done
Starting the XC term evaluation                    ... done (   3.1 sec)
  promolecular density results
     # of electrons  =     17.999020780
     EX              =    -25.471591159
     EC              =     -0.664841782
     EX+EC           =    -26.136432941
Transforming the Hamiltonian                       ... done (   0.0 sec)
Diagonalizing the Hamiltonian                      ... done (   0.0 sec)
Back transforming the eigenvectors                 ... done (   0.0 sec)
Now organizing SCF variables                       ... done
                      ------------------
                      INITIAL GUESS DONE (   5.2 sec)
                      ------------------
--------------
SCF ITERATIONS
--------------
ITER       Energy         Delta-E        Max-DP      RMS-DP      [F,P]     Damp
               ***  Starting incremental Fock matrix formation  ***
  0   -399.2318577247   0.000000000000 0.01834308  0.00013106  0.0676584 0.7000
  1   -399.2368492272  -0.004991502517 0.01090938  0.00009644  0.0379583 0.7000
                               ***Turning on DIIS***
  2   -399.2390795250  -0.002230297767 0.01804335  0.00018086  0.0170818 0.0000
  3   -399.2417840089  -0.002704483952 0.01094685  0.00007057  0.0216109 0.0000
  4   -399.2428049691  -0.001020960159 0.00222363  0.00002916  0.0047530 0.0000
  5   -399.2428591841  -0.000054215046 0.00083140  0.00000718  0.0017576 0.0000
  6   -399.2428656599  -0.000006475787 0.00026779  0.00000304  0.0005174 0.0000
  7   -399.2428663265  -0.000000666543 0.00003157  0.00000037  0.0000981 0.0000
  8   -399.2428663344  -0.000000007906 0.00001343  0.00000017  0.0000185 0.0000
  9   -399.2428663349  -0.000000000540 0.00000550  0.00000006  0.0000034 0.0000
 10   -399.2428663349  -0.000000000018 0.00001321  0.00000018  0.0000004 0.0000
 11   -399.2428663349  -0.000000000005 0.00000906  0.00000012  0.0000001 0.0000
                 **** Energy Check signals convergence ****

               *****************************************************
               *                     SUCCESS                       *
               *           SCF CONVERGED AFTER  12 CYCLES          *
               *****************************************************


----------------
TOTAL SCF ENERGY
----------------

Total Energy       :         -399.24286633 Eh          -10863.95071 eV

Components:
Nuclear Repulsion  :           12.95388641 Eh             352.49317 eV
Electronic Energy  :         -412.19675274 Eh          -11216.44388 eV
One Electron Energy:         -576.92216577 Eh          -15698.85024 eV
Two Electron Energy:          164.72541303 Eh            4482.40637 eV

Virial components:
Potential Energy   :         -798.15380159 Eh          -21718.86911 eV
Kinetic Energy     :          398.91093525 Eh           10854.91840 eV
Virial Ratio       :            2.00083209


DFT components:
N(Alpha)           :        9.000000025018 electrons
N(Beta)            :        9.000000025018 electrons
N(Total)           :       18.000000050036 electrons
E(X)               :      -25.558595745502 Eh       
E(C)               :       -0.665843745331 Eh       
E(XC)              :      -26.224439490833 Eh       
DFET-embed. en.    :        0.000000000000 Eh       

---------------
SCF CONVERGENCE
---------------

  Last Energy change         ...    1.1141e-11  Tolerance :   1.0000e-09
  Last MAX-Density change    ...    3.0745e-05  Tolerance :   1.0000e-08
  Last RMS-Density change    ...    2.0431e-07  Tolerance :   1.0000e-09
  Last DIIS Error            ...    1.2751e-08  Tolerance :   1.0000e-08

             **** THE GBW FILE WAS UPDATED (sh2_pbe.gbw) ****
             **** DENSITY FILE WAS UPDATED (sh2_pbe.scfp.tmp) ****
             **** ENERGY FILE WAS UPDATED (sh2_pbe.en.tmp) ****
----------------------
UHF SPIN CONTAMINATION
----------------------

Warning: in a DFT calculation there is little theoretical justification to 
         calculate <S**2> as in Hartree-Fock theory. We will do it anyways
         but you should keep in mind that the values have only limited relevance

Expectation value of <S**2>     :    -0.000000
Ideal value S*(S+1) for S=0.0   :     0.000000
Deviation                       :    -0.000000

----------------
ORBITAL ENERGIES
----------------
                 SPIN UP ORBITALS
  NO   OCC          E(Eh)            E(eV) 
   0   1.0000     -88.038192     -2395.6410 
   1   1.0000      -7.679229      -208.9625 
   2   1.0000      -5.700074      -155.1069 
   3   1.0000      -5.696722      -155.0157 
   4   1.0000      -5.690044      -154.8340 
   5   1.0000      -0.680983       -18.5305 
   6   1.0000      -0.406315       -11.0564 
   7   1.0000      -0.333588        -9.0774 
   8   1.0000      -0.231595        -6.3020 
   9   0.0000      -0.031620        -0.8604 
  10   0.0000      -0.022677        -0.6171 
  11   0.0000       0.013556         0.3689 
  12   0.0000       0.018202         0.4953 
  13   0.0000       0.020537         0.5588 
  14   0.0000       0.031603         0.8600 
  15   0.0000       0.046158         1.2560 
  16   0.0000       0.052739         1.4351 
  17   0.0000       0.057029         1.5518 
  18   0.0000       0.064613         1.7582 
  19   0.0000       0.068047         1.8517 
  20   0.0000       0.076798         2.0898 
  21   0.0000       0.094873         2.5816 
  22   0.0000       0.107223         2.9177 
  23   0.0000       0.116936         3.1820 
  24   0.0000       0.124888         3.3984 
  25   0.0000       0.135805         3.6955 
  26   0.0000       0.137697         3.7469 
  27   0.0000       0.138399         3.7660 
  28   0.0000       0.142269         3.8713 
  29   0.0000       0.146146         3.9768 
  30   0.0000       0.151654         4.1267 
  31   0.0000       0.172411         4.6915 
  32   0.0000       0.174787         4.7562 
  33   0.0000       0.176311         4.7977 
  34   0.0000       0.180827         4.9206 
  35   0.0000       0.196264         5.3406 
  36   0.0000       0.224640         6.1128 
  37   0.0000       0.230237         6.2651 
  38   0.0000       0.237489         6.4624 
  39   0.0000       0.245646         6.6844 
  40   0.0000       0.252824         6.8797 
  41   0.0000       0.258059         7.0221 
  42   0.0000       0.270892         7.3713 
  43   0.0000       0.272131         7.4051 
  44   0.0000       0.275487         7.4964 
  45   0.0000       0.283013         7.7012 
  46   0.0000       0.297272         8.0892 
  47   0.0000       0.300019         8.1639 
  48   0.0000       0.306805         8.3486 
  49   0.0000       0.310922         8.4606 
  50   0.0000       0.312526         8.5043 
  51   0.0000       0.317999         8.6532 
  52   0.0000       0.322088         8.7644 
  53   0.0000       0.336216         9.1489 
  54   0.0000       0.365590         9.9482 
  55   0.0000       0.367447         9.9987 
  56   0.0000       0.370082        10.0704 
  57   0.0000       0.391726        10.6594 
  58   0.0000       0.404699        11.0124 
  59   0.0000       0.410322        11.1654 
  60   0.0000       0.410431        11.1684 
  61   0.0000       0.413084        11.2406 
  62   0.0000       0.419362        11.4114 
  63   0.0000       0.426295        11.6001 
  64   0.0000       0.439972        11.9722 
  65   0.0000       0.444932        12.1072 
  66   0.0000       0.460073        12.5192 
  67   0.0000       0.471516        12.8306 
  68   0.0000       0.472954        12.8697 
  69   0.0000       0.484035        13.1713 
  70   0.0000       0.488977        13.3057 
  71   0.0000       0.502108        13.6631 
  72   0.0000       0.506279        13.7766 
  73   0.0000       0.519729        14.1426 
  74   0.0000       0.521944        14.2028 
  75   0.0000       0.529134        14.3985 
  76   0.0000       0.538378        14.6500 
  77   0.0000       0.548460        14.9243 
  78   0.0000       0.550533        14.9808 
  79   0.0000       0.569124        15.4866 
  80   0.0000       0.576608        15.6903 
  81   0.0000       0.579116        15.7585 
  82   0.0000       0.589474        16.0404 
  83   0.0000       0.609711        16.5911 
  84   0.0000       0.624214        16.9857 
  85   0.0000       0.628387        17.0993 
  86   0.0000       0.633681        17.2433 
  87   0.0000       0.641408        17.4536 
  88   0.0000       0.645098        17.5540 
  89   0.0000       0.647575        17.6214 
  90   0.0000       0.655445        17.8356 
  91   0.0000       0.664916        18.0933 
  92   0.0000       0.665076        18.0976 
  93   0.0000       0.667075        18.1520 
  94   0.0000       0.668050        18.1786 
  95   0.0000       0.683096        18.5880 
  96   0.0000       0.705213        19.1898 
  97   0.0000       0.707513        19.2524 
  98   0.0000       0.708729        19.2855 
  99   0.0000       0.709800        19.3146 
 100   0.0000       0.733755        19.9665 
 101   0.0000       0.741857        20.1869 
 102   0.0000       0.754435        20.5292 
 103   0.0000       0.766982        20.8706 
 104   0.0000       0.776541        21.1308 
 105   0.0000       0.779004        21.1978 
 106   0.0000       0.784910        21.3585 
 107   0.0000       0.785041        21.3621 
 108   0.0000       0.806674        21.9507 
 109   0.0000       0.814778        22.1712 
 110   0.0000       0.821735        22.3605 
 111   0.0000       0.822575        22.3834 
 112   0.0000       0.824095        22.4248 
 113   0.0000       0.843452        22.9515 
 114   0.0000       0.854622        23.2554 
 115   0.0000       0.861060        23.4306 
 116   0.0000       0.866324        23.5739 
 117   0.0000       0.895885        24.3783 
 118   0.0000       0.938640        25.5417 
 119   0.0000       0.967020        26.3139 
 120   0.0000       0.967476        26.3264 
 121   0.0000       1.021407        27.7939 
 122   0.0000       1.028943        27.9990 
 123   0.0000       1.033547        28.1242 
 124   0.0000       1.068564        29.0771 
 125   0.0000       1.174460        31.9587 
 126   0.0000       1.236668        33.6514 
 127   0.0000       1.251710        34.0608 
 128   0.0000       1.304171        35.4883 
 129   0.0000       1.307328        35.5742 
 130   0.0000       1.321740        35.9664 
 131   0.0000       1.356171        36.9033 
 132   0.0000       1.361812        37.0568 
 133   0.0000       1.375442        37.4277 
 134   0.0000       1.384035        37.6615 
 135   0.0000       1.419314        38.6215 
 136   0.0000       1.454366        39.5753 
 137   0.0000       1.461554        39.7709 
 138   0.0000       1.469953        39.9995 
 139   0.0000       1.474043        40.1107 
 140   0.0000       1.481798        40.3218 
 141   0.0000       1.497315        40.7440 
 142   0.0000       1.512327        41.1525 
 143   0.0000       1.563283        42.5391 
 144   0.0000       1.580102        42.9967 
 145   0.0000       1.750648        47.6376 
 146   0.0000       1.756199        47.7886 
 147   0.0000       1.778994        48.4089 
 148   0.0000       1.805523        49.1308 
 149   0.0000       1.807836        49.1937 
 150   0.0000       1.860919        50.6382 
 151   0.0000       2.253637        61.3246 
 152   0.0000       2.284198        62.1562 
 153   0.0000       2.302990        62.6676 
 154   0.0000       2.312215        62.9186 
 155   0.0000       2.313261        62.9470 
 156   0.0000       2.394131        65.1476 
 157   0.0000       2.451815        66.7173 
 158   0.0000       2.536411        69.0192 
 159   0.0000       2.631591        71.6092 
 160   0.0000       2.665103        72.5211 
 161   0.0000       2.761338        75.1398 
 162   0.0000       2.769650        75.3660 
 163   0.0000       2.801168        76.2237 
 164   0.0000       2.829787        77.0024 
 165   0.0000       3.006982        81.8241 
 166   0.0000       3.050954        83.0207 
 167   0.0000       3.073762        83.6413 
 168   0.0000       3.078041        83.7577 
 169   0.0000       3.180095        86.5348 
 170   0.0000       3.254349        88.5553 
 171   0.0000       3.255010        88.5733 
 172   0.0000       3.274604        89.1065 
 173   0.0000       3.302599        89.8683 
 174   0.0000       3.331495        90.6546 
 175   0.0000       3.334460        90.7353 
 176   0.0000       3.347431        91.0882 
 177   0.0000       3.374842        91.8341 
 178   0.0000       3.381282        92.0093 
 179   0.0000       3.397699        92.4561 
 180   0.0000       3.439129        93.5835 
 181   0.0000       3.467822        94.3642 
 182   0.0000       3.506305        95.4114 
 183   0.0000       3.526653        95.9651 
 184   0.0000       3.576952        97.3338 
 185   0.0000       3.596786        97.8735 
 186   0.0000       3.718474       101.1848 
 187   0.0000       3.720063       101.2281 
 188   0.0000       3.734314       101.6159 
 189   0.0000       3.764592       102.4398 
 190   0.0000       3.876194       105.4766 
 191   0.0000       3.928672       106.9046 
 192   0.0000       3.951661       107.5302 
 193   0.0000       3.964563       107.8812 
 194   0.0000       3.965031       107.8940 
 195   0.0000       4.011070       109.1468 
 196   0.0000       4.150020       112.9278 
 197   0.0000       4.173467       113.5658 
 198   0.0000       4.247384       115.5772 
 199   0.0000       4.453847       121.1954 
 200   0.0000       4.517715       122.9333 
 201   0.0000       4.741861       129.0326 
 202   0.0000       5.026131       136.7680 
 203   0.0000       5.112243       139.1112 
 204   0.0000       5.134186       139.7083 
 205   0.0000       5.185779       141.1122 
 206   0.0000       5.368233       146.0770 
 207   0.0000       5.398624       146.9040 
 208   0.0000       5.460459       148.5866 
 209   0.0000       5.465211       148.7160 
 210   0.0000       5.482620       149.1897 
 211   0.0000       5.702121       155.1626 
 212   0.0000       5.712933       155.4568 
 213   0.0000       5.807020       158.0170 
 214   0.0000       5.817485       158.3018 
 215   0.0000       5.838358       158.8698 
 216   0.0000       6.078636       165.4081 
 217   0.0000       6.094177       165.8310 
 218   0.0000       6.168978       167.8664 
 219   0.0000       6.277461       170.8184 
 220   0.0000       6.434640       175.0955 
 221   0.0000       6.654803       181.0864 
 222   0.0000       6.686231       181.9416 
 223   0.0000       6.807628       185.2450 
 224   0.0000       7.267485       197.7583 
 225   0.0000       7.664501       208.5617 
 226   0.0000       8.286174       225.4782 
 227   0.0000       8.286787       225.4949 
 228   0.0000       8.305967       226.0169 
 229   0.0000       8.327381       226.5996 
 230   0.0000       8.357447       227.4177 
 231   0.0000       8.369104       227.7349 
 232   0.0000       8.426621       229.3000 
 233   0.0000       8.548853       232.6261 
 234   0.0000       8.592834       233.8229 
 235   0.0000       8.648826       235.3465 
 236   0.0000       8.655862       235.5380 
 237   0.0000       8.682198       236.2546 
 238   0.0000       8.782950       238.9962 
 239   0.0000       8.788442       239.1457 
 240   0.0000       8.858097       241.0411 
 241   0.0000       8.878566       241.5981 
 242   0.0000       8.890674       241.9275 
 243   0.0000       9.134569       248.5643 
 244   0.0000       9.153304       249.0741 
 245   0.0000       9.165602       249.4087 
 246   0.0000       9.234703       251.2890 
 247   0.0000       9.247025       251.6243 
 248   0.0000       9.541868       259.6474 
 249   0.0000       9.919434       269.9215 
 250   0.0000      10.012886       272.4645 
 251   0.0000      11.643472       316.8350 
 252   0.0000      11.655622       317.1656 
 253   0.0000      11.815553       321.5175 
 254   0.0000      11.972326       325.7836 
 255   0.0000      12.009447       326.7937 
 256   0.0000      12.044855       327.7572 
 257   0.0000      12.171380       331.2001 
 258   0.0000      12.228435       332.7526 
 259   0.0000      12.281246       334.1897 
 260   0.0000      12.290021       334.4285 
 261   0.0000      12.325081       335.3825 
 262   0.0000      12.339756       335.7818 
 263   0.0000      12.396577       337.3280 
 264   0.0000      12.480419       339.6095 
 265   0.0000      12.550780       341.5241 
 266   0.0000      12.554578       341.6274 
 267   0.0000      12.781279       347.7963 
 268   0.0000      13.012439       354.0865 
 269   0.0000      13.026358       354.4652 
 270   0.0000      13.030788       354.5858 
 271   0.0000      13.363782       363.6470 
 272   0.0000      13.838291       376.5590 
 273   0.0000      14.117121       384.1464 
 274   0.0000      16.682937       453.9658 
 275   0.0000      16.689739       454.1509 
 276   0.0000      16.692023       454.2130 
 277   0.0000      16.692225       454.2185 
 278   0.0000      16.692597       454.2287 
 279   0.0000      16.743412       455.6114 
 280   0.0000      16.756510       455.9678 
 281   0.0000      16.787372       456.8076 
 282   0.0000      16.795707       457.0344 
 283   0.0000      16.807456       457.3541 
 284   0.0000      16.836291       458.1388 
 285   0.0000      17.128484       466.0897 
 286   0.0000      17.138561       466.3640 
 287   0.0000      17.246572       469.3031 
 288   0.0000      17.317517       471.2336 
 289   0.0000      17.455080       474.9769 
 290   0.0000      17.645612       480.1615 
 291   0.0000      18.107901       492.7410 
 292   0.0000      18.256354       496.7807 
 293   0.0000      18.256989       496.7979 
 294   0.0000      18.482084       502.9231 
 295   0.0000      18.788781       511.2687 
 296   0.0000      19.908195       541.7295 
 297   0.0000      23.222449       631.9150 
 298   0.0000      23.252542       632.7338 
 299   0.0000      23.284252       633.5967 
 300   0.0000      23.306759       634.2092 
 301   0.0000      24.084058       655.3605 
 302   0.0000      24.164940       657.5615 
 303   0.0000      32.029657       871.5713 
 304   0.0000      39.849680      1084.3649 
 305   0.0000      40.041732      1089.5909 
 306   0.0000      62.522965      1701.3364 
 307   0.0000      62.531635      1701.5723 
 308   0.0000      62.624564      1704.1010 
 309   0.0000      62.840890      1709.9876 
 310   0.0000      63.495680      1727.8053 
 311   0.0000      90.843017      2471.9642 
 312   0.0000      90.862933      2472.5061 
 313   0.0000      90.891570      2473.2854 
 314   0.0000      90.896650      2473.4236 
 315   0.0000      91.432615      2488.0079 
 316   0.0000      91.597921      2492.5062 

                 SPIN DOWN ORBITALS
  NO   OCC          E(Eh)            E(eV) 
   0   1.0000     -88.038192     -2395.6410 
   1   1.0000      -7.679229      -208.9625 
   2   1.0000      -5.700074      -155.1069 
   3   1.0000      -5.696722      -155.0157 
   4   1.0000      -5.690044      -154.8340 
   5   1.0000      -0.680983       -18.5305 
   6   1.0000      -0.406315       -11.0564 
   7   1.0000      -0.333588        -9.0774 
   8   1.0000      -0.231595        -6.3020 
   9   0.0000      -0.031620        -0.8604 
  10   0.0000      -0.022677        -0.6171 
  11   0.0000       0.013556         0.3689 
  12   0.0000       0.018202         0.4953 
  13   0.0000       0.020537         0.5588 
  14   0.0000       0.031603         0.8600 
  15   0.0000       0.046158         1.2560 
  16   0.0000       0.052739         1.4351 
  17   0.0000       0.057029         1.5518 
  18   0.0000       0.064613         1.7582 
  19   0.0000       0.068047         1.8517 
  20   0.0000       0.076798         2.0898 
  21   0.0000       0.094873         2.5816 
  22   0.0000       0.107223         2.9177 
  23   0.0000       0.116936         3.1820 
  24   0.0000       0.124888         3.3984 
  25   0.0000       0.135805         3.6955 
  26   0.0000       0.137697         3.7469 
  27   0.0000       0.138399         3.7660 
  28   0.0000       0.142269         3.8713 
  29   0.0000       0.146146         3.9768 
  30   0.0000       0.151654         4.1267 
  31   0.0000       0.172411         4.6915 
  32   0.0000       0.174787         4.7562 
  33   0.0000       0.176311         4.7977 
  34   0.0000       0.180827         4.9206 
  35   0.0000       0.196264         5.3406 
  36   0.0000       0.224640         6.1128 
  37   0.0000       0.230237         6.2651 
  38   0.0000       0.237489         6.4624 
  39   0.0000       0.245646         6.6844 
  40   0.0000       0.252824         6.8797 
  41   0.0000       0.258059         7.0221 
  42   0.0000       0.270892         7.3713 
  43   0.0000       0.272131         7.4051 
  44   0.0000       0.275487         7.4964 
  45   0.0000       0.283013         7.7012 
  46   0.0000       0.297272         8.0892 
  47   0.0000       0.300019         8.1639 
  48   0.0000       0.306805         8.3486 
  49   0.0000       0.310922         8.4606 
  50   0.0000       0.312526         8.5043 
  51   0.0000       0.317999         8.6532 
  52   0.0000       0.322088         8.7644 
  53   0.0000       0.336216         9.1489 
  54   0.0000       0.365590         9.9482 
  55   0.0000       0.367447         9.9987 
  56   0.0000       0.370082        10.0704 
  57   0.0000       0.391726        10.6594 
  58   0.0000       0.404699        11.0124 
  59   0.0000       0.410322        11.1654 
  60   0.0000       0.410431        11.1684 
  61   0.0000       0.413084        11.2406 
  62   0.0000       0.419362        11.4114 
  63   0.0000       0.426295        11.6001 
  64   0.0000       0.439972        11.9722 
  65   0.0000       0.444932        12.1072 
  66   0.0000       0.460073        12.5192 
  67   0.0000       0.471516        12.8306 
  68   0.0000       0.472954        12.8697 
  69   0.0000       0.484035        13.1713 
  70   0.0000       0.488977        13.3057 
  71   0.0000       0.502108        13.6631 
  72   0.0000       0.506279        13.7766 
  73   0.0000       0.519729        14.1426 
  74   0.0000       0.521944        14.2028 
  75   0.0000       0.529134        14.3985 
  76   0.0000       0.538378        14.6500 
  77   0.0000       0.548460        14.9243 
  78   0.0000       0.550533        14.9808 
  79   0.0000       0.569124        15.4866 
  80   0.0000       0.576608        15.6903 
  81   0.0000       0.579116        15.7585 
  82   0.0000       0.589474        16.0404 
  83   0.0000       0.609711        16.5911 
  84   0.0000       0.624214        16.9857 
  85   0.0000       0.628387        17.0993 
  86   0.0000       0.633681        17.2433 
  87   0.0000       0.641408        17.4536 
  88   0.0000       0.645098        17.5540 
  89   0.0000       0.647575        17.6214 
  90   0.0000       0.655445        17.8356 
  91   0.0000       0.664916        18.0933 
  92   0.0000       0.665076        18.0976 
  93   0.0000       0.667075        18.1520 
  94   0.0000       0.668050        18.1786 
  95   0.0000       0.683096        18.5880 
  96   0.0000       0.705213        19.1898 
  97   0.0000       0.707513        19.2524 
  98   0.0000       0.708729        19.2855 
  99   0.0000       0.709800        19.3146 
 100   0.0000       0.733755        19.9665 
 101   0.0000       0.741857        20.1869 
 102   0.0000       0.754435        20.5292 
 103   0.0000       0.766982        20.8706 
 104   0.0000       0.776541        21.1308 
 105   0.0000       0.779004        21.1978 
 106   0.0000       0.784910        21.3585 
 107   0.0000       0.785041        21.3621 
 108   0.0000       0.806674        21.9507 
 109   0.0000       0.814778        22.1712 
 110   0.0000       0.821735        22.3605 
 111   0.0000       0.822575        22.3834 
 112   0.0000       0.824095        22.4248 
 113   0.0000       0.843452        22.9515 
 114   0.0000       0.854622        23.2554 
 115   0.0000       0.861060        23.4306 
 116   0.0000       0.866324        23.5739 
 117   0.0000       0.895885        24.3783 
 118   0.0000       0.938640        25.5417 
 119   0.0000       0.967020        26.3139 
 120   0.0000       0.967476        26.3264 
 121   0.0000       1.021407        27.7939 
 122   0.0000       1.028943        27.9990 
 123   0.0000       1.033547        28.1242 
 124   0.0000       1.068564        29.0771 
 125   0.0000       1.174460        31.9587 
 126   0.0000       1.236668        33.6514 
 127   0.0000       1.251710        34.0608 
 128   0.0000       1.304171        35.4883 
 129   0.0000       1.307328        35.5742 
 130   0.0000       1.321740        35.9664 
 131   0.0000       1.356171        36.9033 
 132   0.0000       1.361812        37.0568 
 133   0.0000       1.375442        37.4277 
 134   0.0000       1.384035        37.6615 
 135   0.0000       1.419314        38.6215 
 136   0.0000       1.454366        39.5753 
 137   0.0000       1.461554        39.7709 
 138   0.0000       1.469953        39.9995 
 139   0.0000       1.474043        40.1107 
 140   0.0000       1.481798        40.3218 
 141   0.0000       1.497315        40.7440 
 142   0.0000       1.512327        41.1525 
 143   0.0000       1.563283        42.5391 
 144   0.0000       1.580102        42.9967 
 145   0.0000       1.750648        47.6376 
 146   0.0000       1.756199        47.7886 
 147   0.0000       1.778994        48.4089 
 148   0.0000       1.805523        49.1308 
 149   0.0000       1.807836        49.1937 
 150   0.0000       1.860919        50.6382 
 151   0.0000       2.253637        61.3246 
 152   0.0000       2.284198        62.1562 
 153   0.0000       2.302990        62.6676 
 154   0.0000       2.312215        62.9186 
 155   0.0000       2.313261        62.9470 
 156   0.0000       2.394131        65.1476 
 157   0.0000       2.451815        66.7173 
 158   0.0000       2.536411        69.0192 
 159   0.0000       2.631591        71.6092 
 160   0.0000       2.665103        72.5211 
 161   0.0000       2.761338        75.1398 
 162   0.0000       2.769650        75.3660 
 163   0.0000       2.801168        76.2237 
 164   0.0000       2.829787        77.0024 
 165   0.0000       3.006982        81.8241 
 166   0.0000       3.050954        83.0207 
 167   0.0000       3.073762        83.6413 
 168   0.0000       3.078041        83.7577 
 169   0.0000       3.180095        86.5348 
 170   0.0000       3.254349        88.5553 
 171   0.0000       3.255010        88.5733 
 172   0.0000       3.274604        89.1065 
 173   0.0000       3.302599        89.8683 
 174   0.0000       3.331495        90.6546 
 175   0.0000       3.334460        90.7353 
 176   0.0000       3.347431        91.0882 
 177   0.0000       3.374842        91.8341 
 178   0.0000       3.381282        92.0093 
 179   0.0000       3.397699        92.4561 
 180   0.0000       3.439129        93.5835 
 181   0.0000       3.467822        94.3642 
 182   0.0000       3.506305        95.4114 
 183   0.0000       3.526653        95.9651 
 184   0.0000       3.576952        97.3338 
 185   0.0000       3.596786        97.8735 
 186   0.0000       3.718474       101.1848 
 187   0.0000       3.720063       101.2281 
 188   0.0000       3.734314       101.6159 
 189   0.0000       3.764592       102.4398 
 190   0.0000       3.876194       105.4766 
 191   0.0000       3.928672       106.9046 
 192   0.0000       3.951661       107.5302 
 193   0.0000       3.964563       107.8812 
 194   0.0000       3.965031       107.8940 
 195   0.0000       4.011070       109.1468 
 196   0.0000       4.150020       112.9278 
 197   0.0000       4.173467       113.5658 
 198   0.0000       4.247384       115.5772 
 199   0.0000       4.453847       121.1954 
 200   0.0000       4.517715       122.9333 
 201   0.0000       4.741861       129.0326 
 202   0.0000       5.026131       136.7680 
 203   0.0000       5.112243       139.1112 
 204   0.0000       5.134186       139.7083 
 205   0.0000       5.185779       141.1122 
 206   0.0000       5.368233       146.0770 
 207   0.0000       5.398624       146.9040 
 208   0.0000       5.460459       148.5866 
 209   0.0000       5.465211       148.7160 
 210   0.0000       5.482620       149.1897 
 211   0.0000       5.702121       155.1626 
 212   0.0000       5.712933       155.4568 
 213   0.0000       5.807020       158.0170 
 214   0.0000       5.817485       158.3018 
 215   0.0000       5.838358       158.8698 
 216   0.0000       6.078636       165.4081 
 217   0.0000       6.094177       165.8310 
 218   0.0000       6.168978       167.8664 
 219   0.0000       6.277461       170.8184 
 220   0.0000       6.434640       175.0955 
 221   0.0000       6.654803       181.0864 
 222   0.0000       6.686231       181.9416 
 223   0.0000       6.807628       185.2450 
 224   0.0000       7.267485       197.7583 
 225   0.0000       7.664501       208.5617 
 226   0.0000       8.286174       225.4782 
 227   0.0000       8.286787       225.4949 
 228   0.0000       8.305967       226.0169 
 229   0.0000       8.327381       226.5996 
 230   0.0000       8.357447       227.4177 
 231   0.0000       8.369104       227.7349 
 232   0.0000       8.426621       229.3000 
 233   0.0000       8.548853       232.6261 
 234   0.0000       8.592834       233.8229 
 235   0.0000       8.648826       235.3465 
 236   0.0000       8.655862       235.5380 
 237   0.0000       8.682198       236.2546 
 238   0.0000       8.782950       238.9962 
 239   0.0000       8.788442       239.1457 
 240   0.0000       8.858097       241.0411 
 241   0.0000       8.878566       241.5981 
 242   0.0000       8.890674       241.9275 
 243   0.0000       9.134569       248.5643 
 244   0.0000       9.153304       249.0741 
 245   0.0000       9.165602       249.4087 
 246   0.0000       9.234703       251.2890 
 247   0.0000       9.247025       251.6243 
 248   0.0000       9.541868       259.6474 
 249   0.0000       9.919434       269.9215 
 250   0.0000      10.012886       272.4645 
 251   0.0000      11.643472       316.8350 
 252   0.0000      11.655622       317.1656 
 253   0.0000      11.815553       321.5175 
 254   0.0000      11.972326       325.7836 
 255   0.0000      12.009447       326.7937 
 256   0.0000      12.044855       327.7572 
 257   0.0000      12.171380       331.2001 
 258   0.0000      12.228435       332.7526 
 259   0.0000      12.281246       334.1897 
 260   0.0000      12.290021       334.4285 
 261   0.0000      12.325081       335.3825 
 262   0.0000      12.339756       335.7818 
 263   0.0000      12.396577       337.3280 
 264   0.0000      12.480419       339.6095 
 265   0.0000      12.550780       341.5241 
 266   0.0000      12.554578       341.6274 
 267   0.0000      12.781279       347.7963 
 268   0.0000      13.012439       354.0865 
 269   0.0000      13.026358       354.4652 
 270   0.0000      13.030788       354.5858 
 271   0.0000      13.363782       363.6470 
 272   0.0000      13.838291       376.5590 
 273   0.0000      14.117121       384.1464 
 274   0.0000      16.682937       453.9658 
 275   0.0000      16.689739       454.1509 
 276   0.0000      16.692023       454.2130 
 277   0.0000      16.692225       454.2185 
 278   0.0000      16.692597       454.2287 
 279   0.0000      16.743412       455.6114 
 280   0.0000      16.756510       455.9678 
 281   0.0000      16.787372       456.8076 
 282   0.0000      16.795707       457.0344 
 283   0.0000      16.807456       457.3541 
 284   0.0000      16.836291       458.1388 
 285   0.0000      17.128484       466.0897 
 286   0.0000      17.138561       466.3640 
 287   0.0000      17.246572       469.3031 
 288   0.0000      17.317517       471.2336 
 289   0.0000      17.455080       474.9769 
 290   0.0000      17.645612       480.1615 
 291   0.0000      18.107901       492.7410 
 292   0.0000      18.256354       496.7807 
 293   0.0000      18.256989       496.7979 
 294   0.0000      18.482084       502.9231 
 295   0.0000      18.788781       511.2687 
 296   0.0000      19.908195       541.7295 
 297   0.0000      23.222449       631.9150 
 298   0.0000      23.252542       632.7338 
 299   0.0000      23.284252       633.5967 
 300   0.0000      23.306759       634.2092 
 301   0.0000      24.084058       655.3605 
 302   0.0000      24.164940       657.5615 
 303   0.0000      32.029657       871.5713 
 304   0.0000      39.849680      1084.3649 
 305   0.0000      40.041732      1089.5909 
 306   0.0000      62.522965      1701.3364 
 307   0.0000      62.531635      1701.5723 
 308   0.0000      62.624564      1704.1010 
 309   0.0000      62.840890      1709.9876 
 310   0.0000      63.495680      1727.8053 
 311   0.0000      90.843017      2471.9642 
 312   0.0000      90.862933      2472.5061 
 313   0.0000      90.891570      2473.2854 
 314   0.0000      90.896650      2473.4236 
 315   0.0000      91.432615      2488.0079 
 316   0.0000      91.597921      2492.5062 

                    ********************************
                    * MULLIKEN POPULATION ANALYSIS *
                    ********************************

--------------------------------------------
MULLIKEN ATOMIC CHARGES AND SPIN POPULATIONS
--------------------------------------------
   0 S :   -0.139044   -0.000000
   1 H :    0.069515    0.000000
   2 H :    0.069529    0.000000
Sum of atomic charges         :   -0.0000000
Sum of atomic spin populations:    0.0000000

-----------------------------------------------------
MULLIKEN REDUCED ORBITAL CHARGES AND SPIN POPULATIONS
-----------------------------------------------------
CHARGE
  0 S s       :     5.890139  s :     5.890139
      pz      :     3.234776  p :    10.163859
      px      :     3.888221
      py      :     3.040862
      dz2     :     0.006190  d :     0.078841
      dxz     :     0.002563
      dyz     :     0.060868
      dx2y2   :     0.009219
      dxy     :     0.000000
      f0      :     0.000067  f :     0.005575
      f+1     :     0.000060
      f-1     :     0.002133
      f+2     :     0.002425
      f-2     :    -0.000000
      f+3     :     0.000218
      f-3     :     0.000672
      g0      :     0.000114  g :     0.000563
      g+1     :    -0.000003
      g-1     :     0.000027
      g+2     :     0.000204
      g-2     :    -0.000000
      g+3     :     0.000016
      g-3     :     0.000177
      g+4     :     0.000028
      g-4     :    -0.000000
      h0      :     0.000014  h :     0.000066
      h+1     :     0.000000
      h-1     :    -0.000004
      h+2     :     0.000010
      h-2     :     0.000000
      h+3     :     0.000002
      h-3     :     0.000031
      h+4     :     0.000009
      h-4     :    -0.000000
      h+5     :     0.000001
      h-5     :     0.000003
  1 H s       :     0.850497  s :     0.850497
      pz      :     0.014380  p :     0.081346
      px      :     0.053284
      py      :     0.013682
      dz2     :     0.001760  d :     0.001975
      dxz     :     0.003243
      dyz     :    -0.000534
      dx2y2   :    -0.002772
      dxy     :     0.000277
      f0      :     0.000780  f :    -0.002871
      f+1     :     0.000506
      f-1     :    -0.000842
      f+2     :    -0.000052
      f-2     :    -0.001408
      f+3     :    -0.000984
      f-3     :    -0.000871
      g0      :    -0.000084  g :    -0.000460
      g+1     :     0.000019
      g-1     :     0.000184
      g+2     :     0.000011
      g-2     :    -0.000045
      g+3     :    -0.000341
      g-3     :    -0.000045
      g+4     :    -0.000070
      g-4     :    -0.000089
  2 H s       :     0.850486  s :     0.850486
      pz      :     0.014377  p :     0.081341
      px      :     0.053284
      py      :     0.013680
      dz2     :     0.001760  d :     0.001976
      dxz     :     0.003243
      dyz     :    -0.000533
      dx2y2   :    -0.002772
      dxy     :     0.000277
      f0      :     0.000780  f :    -0.002871
      f+1     :     0.000506
      f-1     :    -0.000842
      f+2     :    -0.000052
      f-2     :    -0.001408
      f+3     :    -0.000984
      f-3     :    -0.000871
      g0      :    -0.000084  g :    -0.000460
      g+1     :     0.000019
      g-1     :     0.000184
      g+2     :     0.000011
      g-2     :    -0.000045
      g+3     :    -0.000341
      g-3     :    -0.000045
      g+4     :    -0.000070
      g-4     :    -0.000089

SPIN
  0 S s       :     0.000000  s :     0.000000
      pz      :    -0.000000  p :    -0.000000
      px      :     0.000000
      py      :    -0.000000
      dz2     :    -0.000000  d :    -0.000000
      dxz     :     0.000000
      dyz     :    -0.000000
      dx2y2   :    -0.000000
      dxy     :     0.000000
      f0      :     0.000000  f :    -0.000000
      f+1     :     0.000000
      f-1     :    -0.000000
      f+2     :    -0.000000
      f-2     :    -0.000000
      f+3     :    -0.000000
      f-3     :     0.000000
      g0      :     0.000000  g :     0.000000
      g+1     :    -0.000000
      g-1     :     0.000000
      g+2     :     0.000000
      g-2     :     0.000000
      g+3     :     0.000000
      g-3     :     0.000000
      g+4     :    -0.000000
      g-4     :     0.000000
      h0      :     0.000000  h :     0.000000
      h+1     :     0.000000
      h-1     :    -0.000000
      h+2     :     0.000000
      h-2     :     0.000000
      h+3     :     0.000000
      h-3     :     0.000000
      h+4     :     0.000000
      h-4     :    -0.000000
      h+5     :     0.000000
      h-5     :    -0.000000
  1 H s       :    -0.000000  s :    -0.000000
      pz      :     0.000000  p :     0.000000
      px      :    -0.000000
      py      :     0.000000
      dz2     :    -0.000000  d :     0.000000
      dxz     :     0.000000
      dyz     :     0.000000
      dx2y2   :     0.000000
      dxy     :    -0.000000
      f0      :     0.000000  f :    -0.000000
      f+1     :     0.000000
      f-1     :    -0.000000
      f+2     :     0.000000
      f-2     :    -0.000000
      f+3     :    -0.000000
      f-3     :    -0.000000
      g0      :     0.000000  g :    -0.000000
      g+1     :     0.000000
      g-1     :     0.000000
      g+2     :    -0.000000
      g-2     :    -0.000000
      g+3     :    -0.000000
      g-3     :     0.000000
      g+4     :    -0.000000
      g-4     :    -0.000000
  2 H s       :     0.000000  s :     0.000000
      pz      :    -0.000000  p :    -0.000000
      px      :    -0.000000
      py      :     0.000000
      dz2     :    -0.000000  d :    -0.000000
      dxz     :    -0.000000
      dyz     :    -0.000000
      dx2y2   :     0.000000
      dxy     :    -0.000000
      f0      :     0.000000  f :     0.000000
      f+1     :     0.000000
      f-1     :     0.000000
      f+2     :    -0.000000
      f-2     :    -0.000000
      f+3     :    -0.000000
      f-3     :     0.000000
      g0      :    -0.000000  g :     0.000000
      g+1     :     0.000000
      g-1     :     0.000000
      g+2     :     0.000000
      g-2     :    -0.000000
      g+3     :    -0.000000
      g-3     :    -0.000000
      g+4     :     0.000000
      g-4     :    -0.000000


                     *******************************
                     * LOEWDIN POPULATION ANALYSIS *
                     *******************************

-------------------------------------------
LOEWDIN ATOMIC CHARGES AND SPIN POPULATIONS
-------------------------------------------
   0 S :    1.832879   -0.000000
   1 H :   -0.916439   -0.000000
   2 H :   -0.916439    0.000000

----------------------------------------------------
LOEWDIN REDUCED ORBITAL CHARGES AND SPIN POPULATIONS
----------------------------------------------------
CHARGE
  0 S s       :     4.892862  s :     4.892862
      pz      :     3.048161  p :     9.109140
      px      :     3.235311
      py      :     2.825668
      dz2     :     0.005621  d :     0.129527
      dxz     :     0.002671
      dyz     :     0.099018
      dx2y2   :     0.022216
      dxy     :     0.000000
      f0      :     0.002337  f :     0.029473
      f+1     :     0.000298
      f-1     :     0.013510
      f+2     :     0.011386
      f-2     :     0.000000
      f+3     :     0.000628
      f-3     :     0.001314
      g0      :     0.000677  g :     0.004680
      g+1     :     0.000004
      g-1     :     0.000733
      g+2     :     0.001384
      g-2     :     0.000000
      g+3     :     0.000575
      g-3     :     0.000955
      g+4     :     0.000351
      g-4     :     0.000000
      h0      :     0.000120  h :     0.001440
      h+1     :     0.000004
      h-1     :     0.000173
      h+2     :     0.000338
      h-2     :     0.000000
      h+3     :     0.000298
      h-3     :     0.000320
      h+4     :     0.000109
      h-4     :     0.000000
      h+5     :     0.000017
      h-5     :     0.000061
  1 H s       :     0.790594  s :     0.790594
      pz      :     0.201394  p :     0.553471
      px      :     0.179445
      py      :     0.172632
      dz2     :     0.087642  d :     0.394221
      dxz     :     0.063448
      dyz     :     0.097616
      dx2y2   :     0.067294
      dxy     :     0.078222
      f0      :     0.007066  f :     0.136942
      f+1     :     0.004556
      f-1     :     0.046787
      f+2     :     0.018907
      f-2     :     0.027689
      f+3     :     0.013048
      f-3     :     0.018889
      g0      :     0.002277  g :     0.041211
      g+1     :     0.000047
      g-1     :     0.006209
      g+2     :     0.010475
      g-2     :     0.004341
      g+3     :     0.007468
      g-3     :     0.003155
      g+4     :     0.005406
      g-4     :     0.001833
  2 H s       :     0.790594  s :     0.790594
      pz      :     0.201394  p :     0.553471
      px      :     0.179445
      py      :     0.172632
      dz2     :     0.087642  d :     0.394221
      dxz     :     0.063448
      dyz     :     0.097616
      dx2y2   :     0.067294
      dxy     :     0.078222
      f0      :     0.007066  f :     0.136942
      f+1     :     0.004556
      f-1     :     0.046787
      f+2     :     0.018907
      f-2     :     0.027689
      f+3     :     0.013048
      f-3     :     0.018889
      g0      :     0.002277  g :     0.041211
      g+1     :     0.000047
      g-1     :     0.006209
      g+2     :     0.010475
      g-2     :     0.004341
      g+3     :     0.007468
      g-3     :     0.003155
      g+4     :     0.005406
      g-4     :     0.001833

SPIN
  0 S s       :    -0.000000  s :    -0.000000
      pz      :    -0.000000  p :    -0.000000
      px      :     0.000000
      py      :    -0.000000
      dz2     :     0.000000  d :     0.000000
      dxz     :    -0.000000
      dyz     :     0.000000
      dx2y2   :    -0.000000
      dxy     :     0.000000
      f0      :    -0.000000  f :     0.000000
      f+1     :    -0.000000
      f-1     :     0.000000
      f+2     :     0.000000
      f-2     :     0.000000
      f+3     :    -0.000000
      f-3     :    -0.000000
      g0      :     0.000000  g :     0.000000
      g+1     :     0.000000
      g-1     :    -0.000000
      g+2     :     0.000000
      g-2     :    -0.000000
      g+3     :    -0.000000
      g-3     :     0.000000
      g+4     :     0.000000
      g-4     :    -0.000000
      h0      :     0.000000  h :     0.000000
      h+1     :    -0.000000
      h-1     :    -0.000000
      h+2     :     0.000000
      h-2     :    -0.000000
      h+3     :     0.000000
      h-3     :     0.000000
      h+4     :    -0.000000
      h-4     :    -0.000000
      h+5     :     0.000000
      h-5     :     0.000000
  1 H s       :    -0.000000  s :    -0.000000
      pz      :    -0.000000  p :     0.000000
      px      :    -0.000000
      py      :     0.000000
      dz2     :    -0.000000  d :     0.000000
      dxz     :     0.000000
      dyz     :     0.000000
      dx2y2   :     0.000000
      dxy     :    -0.000000
      f0      :     0.000000  f :    -0.000000
      f+1     :     0.000000
      f-1     :    -0.000000
      f+2     :     0.000000
      f-2     :    -0.000000
      f+3     :     0.000000
      f-3     :    -0.000000
      g0      :    -0.000000  g :    -0.000000
      g+1     :     0.000000
      g-1     :    -0.000000
      g+2     :    -0.000000
      g-2     :    -0.000000
      g+3     :    -0.000000
      g-3     :    -0.000000
      g+4     :    -0.000000
      g-4     :    -0.000000
  2 H s       :     0.000000  s :     0.000000
      pz      :     0.000000  p :    -0.000000
      px      :     0.000000
      py      :    -0.000000
      dz2     :     0.000000  d :     0.000000
      dxz     :     0.000000
      dyz     :     0.000000
      dx2y2   :     0.000000
      dxy     :     0.000000
      f0      :    -0.000000  f :     0.000000
      f+1     :     0.000000
      f-1     :     0.000000
      f+2     :    -0.000000
      f-2     :    -0.000000
      f+3     :     0.000000
      f-3     :     0.000000
      g0      :    -0.000000  g :    -0.000000
      g+1     :     0.000000
      g-1     :    -0.000000
      g+2     :    -0.000000
      g-2     :    -0.000000
      g+3     :    -0.000000
      g-3     :    -0.000000
      g+4     :    -0.000000
      g-4     :     0.000000


                      *****************************
                      * MAYER POPULATION ANALYSIS *
                      *****************************

  NA   - Mulliken gross atomic population
  ZA   - Total nuclear charge
  QA   - Mulliken gross atomic charge
  VA   - Mayer's total valence
  BVA  - Mayer's bonded valence
  FA   - Mayer's free valence

  ATOM       NA         ZA         QA         VA         BVA        FA
  0 S     16.1390    16.0000    -0.1390     2.0671     2.0671    -0.0000
  1 H      0.9305     1.0000     0.0695     1.0572     1.0572    -0.0000
  2 H      0.9305     1.0000     0.0695     1.0572     1.0572    -0.0000

  Mayer bond orders larger than 0.1
B(  0-S ,  1-H ) :   1.0335 B(  0-S ,  2-H ) :   1.0335 

-------
TIMINGS
-------

Total SCF time: 0 days 0 hours 29 min 59 sec 

Total time                  ....    1799.603 sec
Sum of individual times     ....    1798.986 sec  (100.0%)

Fock matrix formation       ....    1792.513 sec  ( 99.6%)
  XC integration            ....      77.698 sec  (  4.3% of F)
    Basis function eval.    ....       6.802 sec  (  8.8% of XC)
    Density eval.           ....      16.776 sec  ( 21.6% of XC)
    XC-Functional eval.     ....       0.925 sec  (  1.2% of XC)
    XC-Potential eval.      ....      52.537 sec  ( 67.6% of XC)
Diagonalization             ....       0.844 sec  (  0.0%)
Density matrix formation    ....       0.019 sec  (  0.0%)
Population analysis         ....       0.071 sec  (  0.0%)
Initial guess               ....       3.327 sec  (  0.2%)
Orbital Transformation      ....       0.000 sec  (  0.0%)
Orbital Orthonormalization  ....       0.000 sec  (  0.0%)
DIIS solution               ....       0.382 sec  (  0.0%)
Grid generation             ....       1.831 sec  (  0.1%)

-------------------------   --------------------
FINAL SINGLE POINT ENERGY      -399.242866334933
-------------------------   --------------------


                            ***************************************
                            *     ORCA property calculations      *
                            ***************************************

                                    ---------------------
                                    Active property flags
                                    ---------------------
   (+) Dipole Moment
   (+) Polarizability


------------------------------------------------------------------------------
                       ORCA ELECTRIC PROPERTIES CALCULATION
------------------------------------------------------------------------------

Dipole Moment Calculation                       ... on
Quadrupole Moment Calculation                   ... off
Polarizability Calculation                      ... Analytic (CP-SCF)
GBWName                                         ... sh2_pbe.gbw
Electron density file                           ... sh2_pbe.scfp.tmp
The origin for moment calculation is the CENTER OF MASS  = ( 0.000000,  0.000000  0.091015)

-------------
DIPOLE MOMENT
-------------
                                X             Y             Z
Electronic contribution:     -0.00000       0.00000       1.25799
Nuclear contribution   :      0.00000       0.00000      -1.63789
                        -----------------------------------------
Total Dipole Moment    :     -0.00000       0.00000      -0.37990
                        -----------------------------------------
Magnitude (a.u.)       :      0.37990
Magnitude (Debye)      :      0.96562



--------------------
Rotational spectrum 
--------------------
 
Rotational constants in cm-1:    10.344886     9.043103     4.825145 
Rotational constants in MHz : 310131.873993 271105.399200 144654.221918 

 Dipole components along the rotational axes: 
x,y,z [a.u.] :     0.000000    -0.379897    -0.000000 
x,y,z [Debye]:     0.000000    -0.965620    -0.000000 

 
Transforming and storing MO dipole integrals   ... done

                ... starting polarizability calculation

Opening the Dipole integral file               ... (sh2_pbe.dmo.tmp) done
Reading Dipole-MO integrals                    ... done
Solving CP-SCF equations                       ... 
------------------------------------------------------------------------------
                           ORCA CP-SCF CALCULATION
------------------------------------------------------------------------------

Input orbitals are from        ... sh2_pbe.gbw
Input Perturbation             ... sh2_pbe.cpv.tmp
Wavefunction output            ... sh2_pbe.cpu.tmp
Perturbation mode              ... Real perturbation (singlet)
Solver                         ... POPLE
Max. number of iterations      ... 200
Convergence tolerance          ... 1.000e-06
Integral handling              ... Direct
Number of perturbations        ... 3
Number of operators            ... 2
Orbital ranges used for CP-SCF:
 Operator 0:  Orbitals   0...  8  to   9...316
 Operator 1:  Orbitals   0...  8  to   9...316
DFT calculation                         ... on
Exchange functional (SCF)               ... PBE
Exchange functional (CP-SCF)            ... PBE
   PBE kappa parameter  XKappa (SCF)    ...  0.804000
   PBE kappa parameter  XKappa (CP-SCF) ...  0.804000
   PBE mue parameter   XMuePBE (SCF)    ...  0.219520
   PBE mue parameter   XMuePBE (CP-SCF) ...  0.219520
Correlation functional (SCF)            ... PBE
Correlation functional (CP-SCF)         ... PBE
   PBE beta parameter CBetaPBE (SCF)    ...  0.066725
   PBE beta parameter CBetaPBE (CP-SCF) ...  0.066725
 LDA part of GGA corr.  LDAOpt (SCF)    ... PW91-LDA
 LDA part of GGA corr.  LDAOpt (CP-SCF) ... PW91-LDA
Variables per vector in CP-SCF ... 5544
Number of vectors sought       ... 3
Recalculating density on grid  ... done
Calculating the xc-kernel      ... done
     CP-SCF ITERATION   0: 
     CP-SCF ITERATION   1:      0.111005736402
     CP-SCF ITERATION   2:      0.003783704529
     CP-SCF ITERATION   3:      0.000045307243
     CP-SCF ITERATION   4:      0.000000286919
done
Reading CP-SCF coefficients                    ... done
Doing the polarizability tensor   ... done
Cleaning up                                    ... done

-------------------------
THE POLARIZABILITY TENSOR
-------------------------

The raw cartesian tensor (atomic units):
   26.83513     -0.00000     -0.00000  
   -0.00000     25.31746     -0.00000  
   -0.00000     -0.00000     25.45912  
diagonalized tensor: 
   25.31746     25.45912     26.83513  

    0.00000      0.00000     -1.00000  
    1.00000     -0.00000      0.00000  
    0.00000      1.00000      0.00000  

Isotropic polarizability :  25.87057


Timings for individual modules:

Sum of individual times         ...     2857.965 sec (=  47.633 min)
GTO integral calculation        ...        1.015 sec (=   0.017 min)   0.0 %
SCF iterations                  ...     1799.633 sec (=  29.994 min)  63.0 %
Solution of CP-SCF eqns.        ...     1057.317 sec (=  17.622 min)  37.0 %
                             ****ORCA TERMINATED NORMALLY****
TOTAL RUN TIME: 0 days 0 hours 47 minutes 38 seconds 377 msec
