
                                 *****************
                                 * O   R   C   A *
                                 *****************

           --- An Ab Initio, DFT and Semiempirical electronic structure package ---

                  #######################################################
                  #                        -***-                        #
                  #          Department of theory and spectroscopy      #
                  #               Directorship: Frank Neese             #
                  #        Max Planck Institute fuer Kohlenforschung    #
                  #                Kaiser Wilhelm Platz 1               #
                  #                 D-45470 Muelheim/Ruhr               #
                  #                      Germany                        #
                  #                                                     #
                  #                  All rights reserved                #
                  #                        -***-                        #
                  #######################################################


                         Program Version 4.1.2  - RELEASE  -


 With contributions from (in alphabetic order):
   Daniel Aravena         : Magnetic Properties
   Michael Atanasov       : Ab Initio Ligand Field Theory
   Alexander A. Auer      : GIAO ZORA
   Ute Becker             : Parallelization
   Giovanni Bistoni       : ED, Open-shell LED
   Martin Brehm           : Molecular dynamics
   Dmytro Bykov           : SCF Hessian
   Vijay G. Chilkuri      : MRCI spin determinant printing
   Dipayan Datta          : RHF DLPNO-CCSD density
   Achintya Kumar Dutta   : EOM-CC, STEOM-CC
   Dmitry Ganyushin       : Spin-Orbit,Spin-Spin,Magnetic field MRCI
   Miquel Garcia          : C-PCM Hessian
   Yang Guo               : DLPNO-NEVPT2, CIM, IAO-localization
   Andreas Hansen         : Spin unrestricted coupled pair/coupled cluster methods
   Benjamin Helmich-Paris : CASSCF linear response (MC-RPA)
   Lee Huntington         : MR-EOM, pCC
   Robert Izsak           : Overlap fitted RIJCOSX, COSX-SCS-MP3, EOM
   Christian Kollmar      : KDIIS, OOCD, Brueckner-CCSD(T), CCSD density
   Simone Kossmann        : Meta GGA functionals, TD-DFT gradient, OOMP2, MP2 Hessian
   Martin Krupicka        : AUTO-CI
   Lucas Lang             : DCDCAS
   Dagmar Lenk            : GEPOL surface, SMD
   Dimitrios Liakos       : Extrapolation schemes; parallel MDCI
   Dimitrios Manganas     : ROCIS; embedding schemes
   Dimitrios Pantazis     : SARC Basis sets
   Taras Petrenko         : DFT Hessian,TD-DFT gradient, ASA, ECA, R-Raman, ABS, FL, XAS/XES, NRVS
   Peter Pinski           : DLPNO-MP2, DLPNO-MP2 Gradient
   Christoph Reimann      : Effective Core Potentials
   Marius Retegan         : Local ZFS, SOC
   Christoph Riplinger    : Optimizer, TS searches, QM/MM, DLPNO-CCSD(T), (RO)-DLPNO pert. Triples
   Tobias Risthaus        : Range-separated hybrids, TD-DFT gradient, RPA, STAB
   Michael Roemelt        : Restricted open shell CIS
   Masaaki Saitow         : Open-shell DLPNO
   Barbara Sandhoefer     : DKH picture change effects
   Avijit Sen             : IP-ROCIS
   Kantharuban Sivalingam : CASSCF convergence, NEVPT2, FIC-MRCI
   Bernardo de Souza      : ESD, SOC TD-DFT
   Georgi Stoychev        : AutoAux, RI-MP2 NMR
   Willem Van den Heuvel  : Paramagnetic NMR
   Boris Wezisla          : Elementary symmetry handling
   Frank Wennmohs         : Technical directorship


 We gratefully acknowledge several colleagues who have allowed us to
 interface, adapt or use parts of their codes:
   Stefan Grimme, W. Hujo, H. Kruse,             : VdW corrections, initial TS optimization,
                  C. Bannwarth                     DFT functionals, gCP, sTDA/sTD-DF
   Ed Valeev                                     : LibInt (2-el integral package), F12 methods
   Garnet Chan, S. Sharma, J. Yang, R. Olivares  : DMRG
   Ulf Ekstrom                                   : XCFun DFT Library
   Mihaly Kallay                                 : mrcc  (arbitrary order and MRCC methods)
   Andreas Klamt, Michael Diedenhofen            : otool_cosmo (COSMO solvation model)
   Jiri Pittner, Ondrej Demel                    : Mk-CCSD
   Frank Weinhold                                : gennbo (NPA and NBO analysis)
   Christopher J. Cramer and Donald G. Truhlar   : smd solvation model
   Lars Goerigk                                  : TD-DFT with DH, B97 family of functionals
   V. Asgeirsson, H. Jonsson                     : NEB implementation
   FAccTs GmbH                                   : IRC, NEB, NEB-TS, Multilevel


 Your calculation uses the libint2 library for the computation of 2-el integrals
 For citations please refer to: http://libint.valeyev.net

 This ORCA versions uses:
   CBLAS   interface :  Fast vector & matrix operations
   LAPACKE interface :  Fast linear algebra routines
   SCALAPACK package :  Parallel linear algebra routines


----- Orbital basis set information -----
Your calculation utilizes the basis: aug-pc-4
   H, C-F              : F. Jensen, J. Chem. Phys. 115, 9113 (2001).
                         F. Jensen, J. Chem. Phys. 116, 7372 (2002).
                         F. Jensen, J. Chem. Phys. 117, 9234 (2002).
   Si-Cl               : F. Jensen, T. Helgaker, J. Chem. Phys. 121, 3463 (2004).
   He-B, Ne-Mg, Al, Ar : F. Jensen, J. Phys. Chem. A 111, 11198 (2007).
   K, Ca, Ga-Kr        : F. Jensen, J. Chem. Phys. 136, 094110 (2012).
   Sc-Zn               : F. Jensen, J. Chem. Phys. 138, 014107 (2013).

================================================================================
                                        WARNINGS
                       Please study these warnings very carefully!
================================================================================


INFO   : the flag for use of LIBINT has been found!

================================================================================
                                       INPUT FILE
================================================================================
NAME = sih3f_pbe.inp
|  1> !uks pbe nori aug-pc-4 grid7 nofinalgrid verytightscf
|  2> 
|  3> %maxcore 1500
|  4> 
|  5> %pal nprocs 4 end
|  6> 
|  7> %scf
|  8> 	maxiter 200
|  9> end
| 10> %elprop
| 11> 	dipole true
| 12> 	 polar 1
| 13> 	 maxiter 200
| 14> end
| 15> 
| 16> * xyz 0 1
| 17> Si 0.0000 0.0000 0.4986
| 18> F 0.0000 0.0000 -1.0959
| 19> H 0.0000 1.4017 0.9613
| 20> H -1.2139 -0.7008 0.9613
| 21> H 1.2139 -0.7008 0.9613
| 22> *
| 23> 
| 24>                          ****END OF INPUT****
================================================================================

                       ****************************
                       * Single Point Calculation *
                       ****************************

---------------------------------
CARTESIAN COORDINATES (ANGSTROEM)
---------------------------------
  Si     0.000000    0.000000    0.498600
  F      0.000000    0.000000   -1.095900
  H      0.000000    1.401700    0.961300
  H     -1.213900   -0.700800    0.961300
  H      1.213900   -0.700800    0.961300

----------------------------
CARTESIAN COORDINATES (A.U.)
----------------------------
  NO LB      ZA    FRAG     MASS         X           Y           Z
   0 Si   14.0000    0    28.086    0.000000    0.000000    0.942217
   1 F     9.0000    0    18.998    0.000000    0.000000   -2.070951
   2 H     1.0000    0     1.008    0.000000    2.648829    1.816594
   3 H     1.0000    0     1.008   -2.293939   -1.324320    1.816594
   4 H     1.0000    0     1.008    2.293939   -1.324320    1.816594

--------------------------------
INTERNAL COORDINATES (ANGSTROEM)
--------------------------------
 Si     0   0   0     0.000000000000     0.00000000     0.00000000
 F      1   0   0     1.594500000000     0.00000000     0.00000000
 H      1   2   0     1.476094231409   108.26801357     0.00000000
 H      1   2   3     1.476064070425   108.26840003   119.99838957
 H      1   2   3     1.476064070425   108.26840003   240.00161043

---------------------------
INTERNAL COORDINATES (A.U.)
---------------------------
 Si     0   0   0     0.000000000000     0.00000000     0.00000000
 F      1   0   0     3.013168320537     0.00000000     0.00000000
 H      1   2   0     2.789413845225   108.26801357     0.00000000
 H      1   2   3     2.789356849225   108.26840003   119.99838957
 H      1   2   3     2.789356849225   108.26840003   240.00161043

---------------------
BASIS SET INFORMATION
---------------------
There are 3 groups of distinct atoms

 Group   1 Type Si  : 44s27p7d4f3g2h contracted to 8s7p7d4f3g2h pattern {15121211111/111111111/1111111/1111/111/11}
 Group   2 Type F   : 27s12p7d4f3g2h contracted to 9s8p7d4f3g2h pattern {1191111111/51111111/1111111/1111/111/11}
 Group   3 Type H   : 12s7p4d3f2g contracted to 8s7p4d3f2g pattern {51111111/1111111/1111/111/11}

Atom   0Si   basis set group =>   1
Atom   1F    basis set group =>   2
Atom   2H    basis set group =>   3
Atom   3H    basis set group =>   3
Atom   4H    basis set group =>   3


           ************************************************************
           *        Program running with 4 parallel MPI-processes     *
           *              working on a common directory               *
           ************************************************************
------------------------------------------------------------------------------
                           ORCA GTO INTEGRAL CALCULATION
------------------------------------------------------------------------------

                         BASIS SET STATISTICS AND STARTUP INFO

 # of primitive gaussian shells          ...  226
 # of primitive gaussian functions       ...  688
 # of contracted shells                  ...  136
 # of contracted basis functions         ...  550
 Highest angular momentum                ...    5
 Maximum contraction depth               ...   15
 Integral package used                   ... LIBINT
 Integral threshhold            Thresh   ...  1.000e-12
 Primitive cut-off              TCut     ...  1.000e-14


------------------------------ INTEGRAL EVALUATION ----------------------------


 * One electron integrals 
 Pre-screening matrix                    ... done
 Shell pair data                         ... done (   0.003 sec)



           ************************************************************
           *        Program running with 4 parallel MPI-processes     *
           *              working on a common directory               *
           ************************************************************
-------------------------------------------------------------------------------
                                 ORCA SCF
-------------------------------------------------------------------------------

------------
SCF SETTINGS
------------
Hamiltonian:
 Density Functional     Method          .... DFT(GTOs)
 Exchange Functional    Exchange        .... PBE
   PBE kappa parameter   XKappa         ....  0.804000
   PBE mue parameter    XMuePBE         ....  0.219520
 Correlation Functional Correlation     .... PBE
   PBE beta parameter  CBetaPBE         ....  0.066725
 LDA part of GGA corr.  LDAOpt          .... PW91-LDA
 Gradients option       PostSCFGGA      .... off
   Density functional embedding theory  .... OFF
   NL short-range parameter             ....  6.400000


General Settings:
 Integral files         IntName         .... sih3f_pbe
 Hartree-Fock type      HFTyp           .... UHF
 Total Charge           Charge          ....    0
 Multiplicity           Mult            ....    1
 Number of Electrons    NEL             ....   26
 Basis Dimension        Dim             ....  550
 Nuclear Repulsion      ENuc            ....     63.2670891225 Eh

Convergence Acceleration:
 DIIS                   CNVDIIS         .... on
   Start iteration      DIISMaxIt       ....    12
   Startup error        DIISStart       ....  0.200000
   # of expansion vecs  DIISMaxEq       ....     5
   Bias factor          DIISBfac        ....   1.050
   Max. coefficient     DIISMaxC        ....  10.000
 Newton-Raphson         CNVNR           .... off
 SOSCF                  CNVSOSCF        .... off
 Level Shifting         CNVShift        .... on
   Level shift para.    LevelShift      ....    0.2500
   Turn off err/grad.   ShiftErr        ....    0.0010
 Zerner damping         CNVZerner       .... off
 Static damping         CNVDamp         .... on
   Fraction old density DampFac         ....    0.7000
   Max. Damping (<1)    DampMax         ....    0.9800
   Min. Damping (>=0)   DampMin         ....    0.0000
   Turn off err/grad.   DampErr         ....    0.1000
 Fernandez-Rico         CNVRico         .... off

SCF Procedure:
 Maximum # iterations   MaxIter         ....   200
 SCF integral mode      SCFMode         .... Direct
   Integral package                     .... LIBINT
 Reset frequency        DirectResetFreq ....    20
 Integral Threshold     Thresh          ....  1.000e-12 Eh
 Primitive CutOff       TCut            ....  1.000e-14 Eh

Convergence Tolerance:
 Convergence Check Mode ConvCheckMode   .... Total+1el-Energy
 Convergence forced     ConvForced      .... 0
 Energy Change          TolE            ....  1.000e-09 Eh
 1-El. energy change                    ....  1.000e-06 Eh
 DIIS Error             TolErr          ....  1.000e-08


Diagonalization of the overlap matrix:
Smallest eigenvalue                        ... 1.283e-06
Time for diagonalization                   ...    0.230 sec
Threshold for overlap eigenvalues          ... 1.000e-08
Number of eigenvalues below threshold      ... 0
Time for construction of square roots      ...    0.090 sec
Total time needed                          ...    0.321 sec

-------------------
DFT GRID GENERATION
-------------------

General Integration Accuracy     IntAcc      ...  5.670
Radial Grid Type                 RadialGrid  ... Gauss-Chebyshev
Angular Grid (max. acc.)         AngularGrid ... Lebedev-770
Angular grid pruning method      GridPruning ... 3 (G Style)
Weight generation scheme         WeightScheme... Becke
Basis function cutoff            BFCut       ...    1.0000e-12
Integration weight cutoff        WCut        ...    1.0000e-14
Grids for H and He will be reduced by one unit

# of grid points (after initial pruning)     ... 106010 (   0.0 sec)
# of grid points (after weights+screening)   ... 103367 (   0.0 sec)
nearest neighbour list constructed           ...    0.0 sec
Grid point re-assignment to atoms done       ...    0.0 sec
Grid point division into batches done        ...    1.9 sec
Reduced shell lists constructed in    2.3 sec

Total number of grid points                  ...   103367
Total number of batches                      ...     1618
Average number of points per batch           ...       63
Average number of grid points per atom       ...    20673
Average number of shells per batch           ...    96.91 (71.26%)
Average number of basis functions per batch  ...   407.71 (74.13%)
Average number of large shells per batch     ...    85.19 (87.91%)
Average number of large basis fcns per batch ...   358.42 (87.91%)
Maximum spatial batch extension              ...  17.40, 18.61, 16.70 au
Average spatial batch extension              ...   0.53,  0.53,  0.50 au

Time for grid setup =    2.423 sec

------------------------------
INITIAL GUESS: MODEL POTENTIAL
------------------------------
Loading Hartree-Fock densities                     ... done
Calculating cut-offs                               ... done
Setting up the integral package                    ... done
Initializing the effective Hamiltonian             ... done
Starting the Coulomb interaction                   ... done (   0.1 sec)
Reading the grid                                   ... done
Mapping shells                                     ... done
Starting the XC term evaluation                    ... done (   2.8 sec)
  promolecular density results
     # of electrons  =     25.998532808
     EX              =    -31.093333346
     EC              =     -0.907420264
     EX+EC           =    -32.000753610
Transforming the Hamiltonian                       ... done (   0.0 sec)
Diagonalizing the Hamiltonian                      ... done (   0.1 sec)
Back transforming the eigenvectors                 ... done (   0.0 sec)
Now organizing SCF variables                       ... done
                      ------------------
                      INITIAL GUESS DONE (   5.6 sec)
                      ------------------
--------------
SCF ITERATIONS
--------------
ITER       Energy         Delta-E        Max-DP      RMS-DP      [F,P]     Damp
               ***  Starting incremental Fock matrix formation  ***
  0   -390.9696726065   0.000000000000 0.01167022  0.00011399  0.2005979 0.7000
  1   -390.9870119681  -0.017339361646 0.01082031  0.00008482  0.0577073 0.7000
                               ***Turning on DIIS***
  2   -390.9923662908  -0.005354322687 0.02478626  0.00017396  0.0256627 0.0000
  3   -391.0051160517  -0.012749760846 0.00598112  0.00004727  0.0243872 0.0000
  4   -391.0054119767  -0.000295925076 0.00223829  0.00001389  0.0249105 0.0000
  5   -391.0057988772  -0.000386900449 0.00092663  0.00000491  0.0045361 0.0000
  6   -391.0058228509  -0.000023973756 0.00013944  0.00000200  0.0007391 0.0000
  7   -391.0058239104  -0.000001059484 0.00012407  0.00000079  0.0001145 0.0000
  8   -391.0058239373  -0.000000026841 0.00003231  0.00000018  0.0000439 0.0000
  9   -391.0058239424  -0.000000005095 0.00010183  0.00000031  0.0000030 0.0000
 10   -391.0058239424  -0.000000000036 0.00021392  0.00000067  0.0000010 0.0000
 11   -391.0058239424  -0.000000000030 0.00002221  0.00000018  0.0000001 0.0000
 12   -391.0058239424   0.000000000028 0.00002001  0.00000012  0.0000001 0.0000
                 **** Energy Check signals convergence ****

               *****************************************************
               *                     SUCCESS                       *
               *           SCF CONVERGED AFTER  13 CYCLES          *
               *****************************************************


----------------
TOTAL SCF ENERGY
----------------

Total Energy       :         -391.00582394 Eh          -10639.80939 eV

Components:
Nuclear Repulsion  :           63.26708912 Eh            1721.58502 eV
Electronic Energy  :         -454.27291306 Eh          -12361.39441 eV
One Electron Energy:         -668.39038146 Eh          -18187.82693 eV
Two Electron Energy:          214.11746840 Eh            5826.43253 eV

Virial components:
Potential Energy   :         -781.51185689 Eh          -21266.01877 eV
Kinetic Energy     :          390.50603295 Eh           10626.20938 eV
Virial Ratio       :            2.00127985


DFT components:
N(Alpha)           :       13.000000285376 electrons
N(Beta)            :       13.000000285376 electrons
N(Total)           :       26.000000570752 electrons
E(X)               :      -31.371483791012 Eh       
E(C)               :       -0.905240806804 Eh       
E(XC)              :      -32.276724597816 Eh       
DFET-embed. en.    :        0.000000000000 Eh       

---------------
SCF CONVERGENCE
---------------

  Last Energy change         ...   -6.5938e-12  Tolerance :   1.0000e-09
  Last MAX-Density change    ...    2.0428e-05  Tolerance :   1.0000e-08
  Last RMS-Density change    ...    7.9399e-08  Tolerance :   1.0000e-09
  Last DIIS Error            ...    3.7501e-08  Tolerance :   1.0000e-08

             **** THE GBW FILE WAS UPDATED (sih3f_pbe.gbw) ****
             **** DENSITY FILE WAS UPDATED (sih3f_pbe.scfp.tmp) ****
             **** ENERGY FILE WAS UPDATED (sih3f_pbe.en.tmp) ****
----------------------
UHF SPIN CONTAMINATION
----------------------

Warning: in a DFT calculation there is little theoretical justification to 
         calculate <S**2> as in Hartree-Fock theory. We will do it anyways
         but you should keep in mind that the values have only limited relevance

Expectation value of <S**2>     :     0.000000
Ideal value S*(S+1) for S=0.0   :     0.000000
Deviation                       :     0.000000

----------------
ORBITAL ENERGIES
----------------
                 SPIN UP ORBITALS
  NO   OCC          E(Eh)            E(eV) 
   0   1.0000     -65.414375     -1780.0156 
   1   1.0000     -24.250721      -659.8957 
   2   1.0000      -5.078202      -138.1849 
   3   1.0000      -3.489687       -94.9592 
   4   1.0000      -3.486313       -94.8674 
   5   1.0000      -3.486313       -94.8674 
   6   1.0000      -1.090777       -29.6816 
   7   1.0000      -0.510142       -13.8817 
   8   1.0000      -0.406957       -11.0739 
   9   1.0000      -0.395031       -10.7493 
  10   1.0000      -0.395030       -10.7493 
  11   1.0000      -0.306631        -8.3438 
  12   1.0000      -0.306624        -8.3437 
  13   0.0000      -0.044953        -1.2232 
  14   0.0000      -0.014031        -0.3818 
  15   0.0000       0.006103         0.1661 
  16   0.0000       0.006107         0.1662 
  17   0.0000       0.014413         0.3922 
  18   0.0000       0.014415         0.3923 
  19   0.0000       0.020388         0.5548 
  20   0.0000       0.034887         0.9493 
  21   0.0000       0.036894         1.0039 
  22   0.0000       0.036894         1.0039 
  23   0.0000       0.047301         1.2871 
  24   0.0000       0.051926         1.4130 
  25   0.0000       0.051927         1.4130 
  26   0.0000       0.062614         1.7038 
  27   0.0000       0.062615         1.7038 
  28   0.0000       0.074671         2.0319 
  29   0.0000       0.084980         2.3124 
  30   0.0000       0.090938         2.4745 
  31   0.0000       0.090938         2.4745 
  32   0.0000       0.102443         2.7876 
  33   0.0000       0.103616         2.8195 
  34   0.0000       0.103617         2.8196 
  35   0.0000       0.112261         3.0548 
  36   0.0000       0.113146         3.0789 
  37   0.0000       0.113147         3.0789 
  38   0.0000       0.126018         3.4291 
  39   0.0000       0.132872         3.6156 
  40   0.0000       0.132873         3.6157 
  41   0.0000       0.135728         3.6933 
  42   0.0000       0.152894         4.1604 
  43   0.0000       0.152895         4.1605 
  44   0.0000       0.159736         4.3466 
  45   0.0000       0.166860         4.5405 
  46   0.0000       0.166861         4.5405 
  47   0.0000       0.172117         4.6836 
  48   0.0000       0.176260         4.7963 
  49   0.0000       0.184498         5.0204 
  50   0.0000       0.184499         5.0205 
  51   0.0000       0.187766         5.1094 
  52   0.0000       0.201595         5.4857 
  53   0.0000       0.201597         5.4857 
  54   0.0000       0.209193         5.6924 
  55   0.0000       0.214384         5.8337 
  56   0.0000       0.214385         5.8337 
  57   0.0000       0.219293         5.9673 
  58   0.0000       0.223876         6.0920 
  59   0.0000       0.223877         6.0920 
  60   0.0000       0.242046         6.5864 
  61   0.0000       0.250359         6.8126 
  62   0.0000       0.250360         6.8126 
  63   0.0000       0.258068         7.0224 
  64   0.0000       0.258069         7.0224 
  65   0.0000       0.275397         7.4939 
  66   0.0000       0.278703         7.5839 
  67   0.0000       0.278706         7.5840 
  68   0.0000       0.289192         7.8693 
  69   0.0000       0.296412         8.0658 
  70   0.0000       0.296494         8.0680 
  71   0.0000       0.296497         8.0681 
  72   0.0000       0.308698         8.4001 
  73   0.0000       0.308699         8.4001 
  74   0.0000       0.312874         8.5137 
  75   0.0000       0.315014         8.5720 
  76   0.0000       0.315018         8.5721 
  77   0.0000       0.328598         8.9416 
  78   0.0000       0.336411         9.1542 
  79   0.0000       0.336414         9.1543 
  80   0.0000       0.340789         9.2733 
  81   0.0000       0.342130         9.3098 
  82   0.0000       0.347930         9.4677 
  83   0.0000       0.347932         9.4677 
  84   0.0000       0.374022        10.1776 
  85   0.0000       0.374026        10.1778 
  86   0.0000       0.374799        10.1988 
  87   0.0000       0.383908        10.4467 
  88   0.0000       0.383911        10.4468 
  89   0.0000       0.388547        10.5729 
  90   0.0000       0.410160        11.1610 
  91   0.0000       0.416875        11.3438 
  92   0.0000       0.416877        11.3438 
  93   0.0000       0.434878        11.8336 
  94   0.0000       0.443481        12.0677 
  95   0.0000       0.451773        12.2934 
  96   0.0000       0.451774        12.2934 
  97   0.0000       0.459439        12.5020 
  98   0.0000       0.461987        12.5713 
  99   0.0000       0.461991        12.5714 
 100   0.0000       0.471316        12.8252 
 101   0.0000       0.471321        12.8253 
 102   0.0000       0.474613        12.9149 
 103   0.0000       0.478154        13.0112 
 104   0.0000       0.479036        13.0352 
 105   0.0000       0.479037        13.0353 
 106   0.0000       0.490277        13.3411 
 107   0.0000       0.490283        13.3413 
 108   0.0000       0.492460        13.4005 
 109   0.0000       0.502875        13.6839 
 110   0.0000       0.502876        13.6840 
 111   0.0000       0.505111        13.7448 
 112   0.0000       0.505115        13.7449 
 113   0.0000       0.532569        14.4919 
 114   0.0000       0.539803        14.6888 
 115   0.0000       0.539813        14.6891 
 116   0.0000       0.549277        14.9466 
 117   0.0000       0.553366        15.0578 
 118   0.0000       0.553371        15.0580 
 119   0.0000       0.563193        15.3253 
 120   0.0000       0.570520        15.5246 
 121   0.0000       0.570522        15.5247 
 122   0.0000       0.582791        15.8586 
 123   0.0000       0.596562        16.2333 
 124   0.0000       0.598330        16.2814 
 125   0.0000       0.600824        16.3493 
 126   0.0000       0.600830        16.3494 
 127   0.0000       0.608781        16.5658 
 128   0.0000       0.608784        16.5659 
 129   0.0000       0.640386        17.4258 
 130   0.0000       0.640643        17.4328 
 131   0.0000       0.640644        17.4328 
 132   0.0000       0.662000        18.0139 
 133   0.0000       0.665816        18.1178 
 134   0.0000       0.665821        18.1179 
 135   0.0000       0.674625        18.3575 
 136   0.0000       0.680713        18.5231 
 137   0.0000       0.692671        18.8485 
 138   0.0000       0.692673        18.8486 
 139   0.0000       0.708820        19.2880 
 140   0.0000       0.711928        19.3726 
 141   0.0000       0.711929        19.3726 
 142   0.0000       0.724982        19.7278 
 143   0.0000       0.724984        19.7278 
 144   0.0000       0.737811        20.0768 
 145   0.0000       0.741676        20.1820 
 146   0.0000       0.741681        20.1822 
 147   0.0000       0.742755        20.2114 
 148   0.0000       0.764387        20.8000 
 149   0.0000       0.764394        20.8002 
 150   0.0000       0.769938        20.9511 
 151   0.0000       0.785699        21.3800 
 152   0.0000       0.785703        21.3801 
 153   0.0000       0.792988        21.5783 
 154   0.0000       0.807753        21.9801 
 155   0.0000       0.807756        21.9802 
 156   0.0000       0.818334        22.2680 
 157   0.0000       0.818338        22.2681 
 158   0.0000       0.820586        22.3293 
 159   0.0000       0.822027        22.3685 
 160   0.0000       0.852409        23.1952 
 161   0.0000       0.861659        23.4469 
 162   0.0000       0.861661        23.4470 
 163   0.0000       0.881245        23.9799 
 164   0.0000       0.881689        23.9920 
 165   0.0000       0.881696        23.9922 
 166   0.0000       0.887463        24.1491 
 167   0.0000       0.902522        24.5589 
 168   0.0000       0.902525        24.5590 
 169   0.0000       0.908701        24.7270 
 170   0.0000       0.917223        24.9589 
 171   0.0000       0.917230        24.9591 
 172   0.0000       0.939077        25.5536 
 173   0.0000       0.941710        25.6252 
 174   0.0000       0.941715        25.6254 
 175   0.0000       0.948989        25.8233 
 176   0.0000       0.948999        25.8236 
 177   0.0000       0.972637        26.4668 
 178   0.0000       0.972639        26.4668 
 179   0.0000       0.990866        26.9628 
 180   0.0000       1.015089        27.6220 
 181   0.0000       1.027745        27.9664 
 182   0.0000       1.027746        27.9664 
 183   0.0000       1.040655        28.3177 
 184   0.0000       1.046675        28.4815 
 185   0.0000       1.067777        29.0557 
 186   0.0000       1.067778        29.0557 
 187   0.0000       1.082829        29.4653 
 188   0.0000       1.082833        29.4654 
 189   0.0000       1.096737        29.8437 
 190   0.0000       1.096739        29.8438 
 191   0.0000       1.134962        30.8839 
 192   0.0000       1.134965        30.8840 
 193   0.0000       1.156727        31.4761 
 194   0.0000       1.175517        31.9874 
 195   0.0000       1.188975        32.3537 
 196   0.0000       1.220340        33.2071 
 197   0.0000       1.220340        33.2072 
 198   0.0000       1.260833        34.3090 
 199   0.0000       1.261393        34.3243 
 200   0.0000       1.261394        34.3243 
 201   0.0000       1.276492        34.7351 
 202   0.0000       1.281934        34.8832 
 203   0.0000       1.281937        34.8833 
 204   0.0000       1.307098        35.5680 
 205   0.0000       1.307102        35.5681 
 206   0.0000       1.319186        35.8969 
 207   0.0000       1.349679        36.7266 
 208   0.0000       1.385424        37.6993 
 209   0.0000       1.385429        37.6995 
 210   0.0000       1.397905        38.0389 
 211   0.0000       1.413166        38.4542 
 212   0.0000       1.414630        38.4941 
 213   0.0000       1.414634        38.4942 
 214   0.0000       1.431571        38.9550 
 215   0.0000       1.470120        40.0040 
 216   0.0000       1.470123        40.0041 
 217   0.0000       1.489505        40.5315 
 218   0.0000       1.509289        41.0698 
 219   0.0000       1.509289        41.0699 
 220   0.0000       1.549504        42.1642 
 221   0.0000       1.568348        42.6769 
 222   0.0000       1.568350        42.6770 
 223   0.0000       1.591193        43.2986 
 224   0.0000       1.591199        43.2987 
 225   0.0000       1.625147        44.2225 
 226   0.0000       1.625153        44.2227 
 227   0.0000       1.630797        44.3762 
 228   0.0000       1.646947        44.8157 
 229   0.0000       1.646949        44.8158 
 230   0.0000       1.681317        45.7510 
 231   0.0000       1.697878        46.2016 
 232   0.0000       1.697879        46.2016 
 233   0.0000       1.721148        46.8348 
 234   0.0000       1.721172        46.8355 
 235   0.0000       1.721180        46.8357 
 236   0.0000       1.770843        48.1871 
 237   0.0000       1.826767        49.7088 
 238   0.0000       1.846504        50.2459 
 239   0.0000       1.846507        50.2460 
 240   0.0000       1.877997        51.1029 
 241   0.0000       1.878002        51.1030 
 242   0.0000       1.968229        53.5582 
 243   0.0000       2.142274        58.2942 
 244   0.0000       2.169110        59.0245 
 245   0.0000       2.169122        59.0248 
 246   0.0000       2.226285        60.5803 
 247   0.0000       2.231030        60.7094 
 248   0.0000       2.231049        60.7099 
 249   0.0000       2.295418        62.4615 
 250   0.0000       2.295418        62.4615 
 251   0.0000       2.308147        62.8079 
 252   0.0000       2.361427        64.2577 
 253   0.0000       2.374548        64.6147 
 254   0.0000       2.374556        64.6149 
 255   0.0000       2.413147        65.6651 
 256   0.0000       2.413151        65.6652 
 257   0.0000       2.440331        66.4048 
 258   0.0000       2.494420        67.8766 
 259   0.0000       2.494423        67.8767 
 260   0.0000       2.517814        68.5132 
 261   0.0000       2.533613        68.9431 
 262   0.0000       2.534213        68.9595 
 263   0.0000       2.534215        68.9595 
 264   0.0000       2.597199        70.6734 
 265   0.0000       2.633519        71.6617 
 266   0.0000       2.659011        72.3554 
 267   0.0000       2.659020        72.3556 
 268   0.0000       2.690380        73.2090 
 269   0.0000       2.690391        73.2093 
 270   0.0000       2.790719        75.9393 
 271   0.0000       2.804359        76.3105 
 272   0.0000       2.815588        76.6160 
 273   0.0000       2.815589        76.6161 
 274   0.0000       2.870686        78.1153 
 275   0.0000       2.911665        79.2304 
 276   0.0000       2.911683        79.2309 
 277   0.0000       2.963662        80.6453 
 278   0.0000       3.092454        84.1499 
 279   0.0000       3.092454        84.1500 
 280   0.0000       3.126380        85.0731 
 281   0.0000       3.126399        85.0736 
 282   0.0000       3.201400        87.1145 
 283   0.0000       3.228770        87.8593 
 284   0.0000       3.303669        89.8974 
 285   0.0000       3.303675        89.8976 
 286   0.0000       3.340395        90.8968 
 287   0.0000       3.378913        91.9449 
 288   0.0000       3.378917        91.9450 
 289   0.0000       3.387011        92.1652 
 290   0.0000       3.387042        92.1661 
 291   0.0000       3.421098        93.0928 
 292   0.0000       3.421099        93.0928 
 293   0.0000       3.446850        93.7936 
 294   0.0000       3.511955        95.5652 
 295   0.0000       3.595934        97.8503 
 296   0.0000       3.620528        98.5196 
 297   0.0000       3.620538        98.5198 
 298   0.0000       3.638310        99.0034 
 299   0.0000       3.638338        99.0042 
 300   0.0000       3.639526        99.0365 
 301   0.0000       3.682597       100.2086 
 302   0.0000       3.708123       100.9032 
 303   0.0000       3.743646       101.8698 
 304   0.0000       3.743648       101.8698 
 305   0.0000       3.772721       102.6610 
 306   0.0000       3.772742       102.6615 
 307   0.0000       3.895644       106.0059 
 308   0.0000       3.914154       106.5096 
 309   0.0000       3.914164       106.5098 
 310   0.0000       3.967458       107.9600 
 311   0.0000       4.008104       109.0660 
 312   0.0000       4.008124       109.0666 
 313   0.0000       4.029318       109.6433 
 314   0.0000       4.121637       112.1554 
 315   0.0000       4.121672       112.1564 
 316   0.0000       4.247654       115.5845 
 317   0.0000       4.305160       117.1494 
 318   0.0000       4.305179       117.1499 
 319   0.0000       4.418832       120.2425 
 320   0.0000       4.642928       126.3405 
 321   0.0000       4.642945       126.3410 
 322   0.0000       4.672584       127.1475 
 323   0.0000       4.812828       130.9637 
 324   0.0000       4.812874       130.9650 
 325   0.0000       4.830825       131.4534 
 326   0.0000       4.948228       134.6481 
 327   0.0000       4.967793       135.1805 
 328   0.0000       4.967831       135.1816 
 329   0.0000       5.040747       137.1657 
 330   0.0000       5.040758       137.1660 
 331   0.0000       5.151775       140.1869 
 332   0.0000       5.151799       140.1876 
 333   0.0000       5.270333       143.4130 
 334   0.0000       5.324113       144.8765 
 335   0.0000       5.328658       145.0001 
 336   0.0000       5.328662       145.0003 
 337   0.0000       5.359324       145.8346 
 338   0.0000       5.359328       145.8347 
 339   0.0000       5.502211       149.7228 
 340   0.0000       5.506159       149.8302 
 341   0.0000       5.506169       149.8305 
 342   0.0000       5.647888       153.6868 
 343   0.0000       5.647901       153.6872 
 344   0.0000       5.670603       154.3049 
 345   0.0000       5.670642       154.3060 
 346   0.0000       5.683653       154.6601 
 347   0.0000       5.792689       157.6271 
 348   0.0000       5.809857       158.0942 
 349   0.0000       5.841563       158.9570 
 350   0.0000       5.841568       158.9572 
 351   0.0000       6.028296       164.0383 
 352   0.0000       6.079055       165.4195 
 353   0.0000       6.079058       165.4196 
 354   0.0000       6.210140       168.9865 
 355   0.0000       6.234185       169.6408 
 356   0.0000       6.389074       173.8555 
 357   0.0000       6.389081       173.8557 
 358   0.0000       6.489871       176.5984 
 359   0.0000       6.537656       177.8987 
 360   0.0000       6.537657       177.8987 
 361   0.0000       6.646097       180.8495 
 362   0.0000       6.646157       180.8511 
 363   0.0000       6.814198       185.4238 
 364   0.0000       6.965596       189.5435 
 365   0.0000       6.965638       189.5446 
 366   0.0000       7.027718       191.2339 
 367   0.0000       7.030143       191.2999 
 368   0.0000       7.097761       193.1399 
 369   0.0000       7.097763       193.1399 
 370   0.0000       7.112865       193.5509 
 371   0.0000       7.112898       193.5518 
 372   0.0000       7.154164       194.6747 
 373   0.0000       7.154170       194.6749 
 374   0.0000       7.213122       196.2790 
 375   0.0000       7.347146       199.9260 
 376   0.0000       7.430348       202.1900 
 377   0.0000       7.430355       202.1902 
 378   0.0000       7.433058       202.2638 
 379   0.0000       7.743359       210.7075 
 380   0.0000       8.055692       219.2065 
 381   0.0000       8.055702       219.2068 
 382   0.0000       8.453310       230.0263 
 383   0.0000       8.498507       231.2561 
 384   0.0000       8.498523       231.2566 
 385   0.0000       8.611710       234.3365 
 386   0.0000       8.611721       234.3368 
 387   0.0000       8.633810       234.9379 
 388   0.0000       8.714637       237.1373 
 389   0.0000       8.714640       237.1374 
 390   0.0000       8.840848       240.5717 
 391   0.0000       8.915612       242.6061 
 392   0.0000       8.915618       242.6063 
 393   0.0000       8.924005       242.8345 
 394   0.0000       8.970575       244.1018 
 395   0.0000       8.978655       244.3216 
 396   0.0000       8.978662       244.3218 
 397   0.0000       9.078351       247.0345 
 398   0.0000       9.089619       247.3411 
 399   0.0000       9.089644       247.3418 
 400   0.0000       9.185790       249.9581 
 401   0.0000       9.379523       255.2298 
 402   0.0000       9.379549       255.2305 
 403   0.0000       9.423081       256.4151 
 404   0.0000       9.423108       256.4158 
 405   0.0000       9.448556       257.1083 
 406   0.0000       9.506322       258.6802 
 407   0.0000       9.529046       259.2985 
 408   0.0000       9.529051       259.2986 
 409   0.0000      10.148106       276.1440 
 410   0.0000      10.148112       276.1442 
 411   0.0000      10.175337       276.8850 
 412   0.0000      10.239249       278.6241 
 413   0.0000      10.239297       278.6254 
 414   0.0000      10.334740       281.2226 
 415   0.0000      10.689547       290.8774 
 416   0.0000      11.133902       302.9689 
 417   0.0000      11.585362       315.2537 
 418   0.0000      11.585381       315.2543 
 419   0.0000      12.242270       333.1291 
 420   0.0000      12.242270       333.1291 
 421   0.0000      12.280437       334.1677 
 422   0.0000      12.368106       336.5533 
 423   0.0000      12.368118       336.5536 
 424   0.0000      12.414138       337.8059 
 425   0.0000      12.414142       337.8060 
 426   0.0000      12.441705       338.5560 
 427   0.0000      12.513344       340.5054 
 428   0.0000      12.513359       340.5058 
 429   0.0000      12.551272       341.5375 
 430   0.0000      12.659696       344.4878 
 431   0.0000      12.659700       344.4879 
 432   0.0000      12.676012       344.9318 
 433   0.0000      12.676012       344.9318 
 434   0.0000      12.729592       346.3898 
 435   0.0000      12.733132       346.4861 
 436   0.0000      12.733140       346.4864 
 437   0.0000      12.740292       346.6810 
 438   0.0000      12.766000       347.3805 
 439   0.0000      12.828751       349.0881 
 440   0.0000      12.828751       349.0881 
 441   0.0000      12.897662       350.9632 
 442   0.0000      12.897663       350.9633 
 443   0.0000      12.909718       351.2913 
 444   0.0000      12.960860       352.6829 
 445   0.0000      13.049307       355.0897 
 446   0.0000      13.049310       355.0898 
 447   0.0000      13.086584       356.1041 
 448   0.0000      13.086593       356.1043 
 449   0.0000      13.087136       356.1191 
 450   0.0000      13.168310       358.3279 
 451   0.0000      13.168336       358.3286 
 452   0.0000      13.296108       361.8055 
 453   0.0000      13.320864       362.4791 
 454   0.0000      13.320895       362.4800 
 455   0.0000      13.384810       364.2192 
 456   0.0000      14.440652       392.9501 
 457   0.0000      14.440657       392.9503 
 458   0.0000      14.737026       401.0149 
 459   0.0000      15.050510       409.5452 
 460   0.0000      15.062016       409.8583 
 461   0.0000      15.235500       414.5790 
 462   0.0000      15.235508       414.5792 
 463   0.0000      15.313890       416.7121 
 464   0.0000      15.313901       416.7124 
 465   0.0000      15.603265       424.5864 
 466   0.0000      15.666820       426.3158 
 467   0.0000      15.720000       427.7630 
 468   0.0000      15.720014       427.7633 
 469   0.0000      16.215155       441.2368 
 470   0.0000      16.215189       441.2377 
 471   0.0000      16.538258       450.0289 
 472   0.0000      16.727691       455.1836 
 473   0.0000      16.736511       455.4236 
 474   0.0000      16.736517       455.4238 
 475   0.0000      16.740054       455.5200 
 476   0.0000      16.740058       455.5201 
 477   0.0000      16.740177       455.5234 
 478   0.0000      16.742274       455.5804 
 479   0.0000      16.774349       456.4532 
 480   0.0000      16.774351       456.4533 
 481   0.0000      16.789198       456.8573 
 482   0.0000      16.789199       456.8573 
 483   0.0000      16.792746       456.9538 
 484   0.0000      16.897049       459.7921 
 485   0.0000      16.903499       459.9676 
 486   0.0000      16.903503       459.9677 
 487   0.0000      17.137217       466.3274 
 488   0.0000      17.137218       466.3274 
 489   0.0000      17.141601       466.4467 
 490   0.0000      17.188672       467.7275 
 491   0.0000      17.363263       472.4784 
 492   0.0000      17.407888       473.6927 
 493   0.0000      17.407902       473.6931 
 494   0.0000      17.704387       481.7609 
 495   0.0000      17.704434       481.7622 
 496   0.0000      17.748783       482.9689 
 497   0.0000      17.923366       487.7196 
 498   0.0000      17.923460       487.7221 
 499   0.0000      20.118463       547.4512 
 500   0.0000      20.118514       547.4526 
 501   0.0000      20.189661       549.3886 
 502   0.0000      20.222742       550.2888 
 503   0.0000      20.587043       560.2019 
 504   0.0000      20.587048       560.2021 
 505   0.0000      20.840581       567.1010 
 506   0.0000      21.137612       575.1837 
 507   0.0000      21.137618       575.1838 
 508   0.0000      23.358888       635.6276 
 509   0.0000      23.401082       636.7758 
 510   0.0000      23.401095       636.7762 
 511   0.0000      23.445523       637.9851 
 512   0.0000      23.445540       637.9856 
 513   0.0000      23.484447       639.0443 
 514   0.0000      23.804299       647.7479 
 515   0.0000      23.991045       652.8295 
 516   0.0000      23.991059       652.8299 
 517   0.0000      26.349580       717.0085 
 518   0.0000      30.413110       827.5828 
 519   0.0000      30.413126       827.5832 
 520   0.0000      30.710537       835.6762 
 521   0.0000      30.710543       835.6764 
 522   0.0000      31.244643       850.2100 
 523   0.0000      39.772634      1082.2684 
 524   0.0000      39.905107      1085.8732 
 525   0.0000      39.905149      1085.8743 
 526   0.0000      41.665120      1133.7656 
 527   0.0000      41.665125      1133.7657 
 528   0.0000      41.924555      1140.8252 
 529   0.0000      42.941536      1168.4986 
 530   0.0000      55.435083      1508.4653 
 531   0.0000      55.435089      1508.4655 
 532   0.0000      55.828122      1519.1604 
 533   0.0000      55.828153      1519.1613 
 534   0.0000      55.868622      1520.2625 
 535   0.0000      90.974230      2475.5347 
 536   0.0000      91.000346      2476.2453 
 537   0.0000      91.000354      2476.2455 
 538   0.0000      91.035940      2477.2139 
 539   0.0000      91.035945      2477.2140 
 540   0.0000      91.064003      2477.9775 
 541   0.0000      91.327134      2485.1376 
 542   0.0000      91.327170      2485.1386 
 543   0.0000      91.419589      2487.6535 
 544   0.0000      91.419603      2487.6539 
 545   0.0000      91.552054      2491.2580 
 546   0.0000      91.552056      2491.2581 
 547   0.0000      91.578145      2491.9680 
 548   0.0000      91.889733      2500.4468 
 549   0.0000     201.795187      5491.1262 

                 SPIN DOWN ORBITALS
  NO   OCC          E(Eh)            E(eV) 
   0   1.0000     -65.414375     -1780.0156 
   1   1.0000     -24.250721      -659.8957 
   2   1.0000      -5.078202      -138.1849 
   3   1.0000      -3.489687       -94.9592 
   4   1.0000      -3.486313       -94.8674 
   5   1.0000      -3.486313       -94.8674 
   6   1.0000      -1.090777       -29.6816 
   7   1.0000      -0.510142       -13.8817 
   8   1.0000      -0.406957       -11.0739 
   9   1.0000      -0.395031       -10.7493 
  10   1.0000      -0.395030       -10.7493 
  11   1.0000      -0.306631        -8.3438 
  12   1.0000      -0.306624        -8.3437 
  13   0.0000      -0.044953        -1.2232 
  14   0.0000      -0.014031        -0.3818 
  15   0.0000       0.006103         0.1661 
  16   0.0000       0.006107         0.1662 
  17   0.0000       0.014413         0.3922 
  18   0.0000       0.014415         0.3923 
  19   0.0000       0.020388         0.5548 
  20   0.0000       0.034887         0.9493 
  21   0.0000       0.036894         1.0039 
  22   0.0000       0.036894         1.0039 
  23   0.0000       0.047301         1.2871 
  24   0.0000       0.051926         1.4130 
  25   0.0000       0.051927         1.4130 
  26   0.0000       0.062614         1.7038 
  27   0.0000       0.062615         1.7038 
  28   0.0000       0.074671         2.0319 
  29   0.0000       0.084980         2.3124 
  30   0.0000       0.090938         2.4745 
  31   0.0000       0.090938         2.4745 
  32   0.0000       0.102443         2.7876 
  33   0.0000       0.103616         2.8195 
  34   0.0000       0.103617         2.8196 
  35   0.0000       0.112261         3.0548 
  36   0.0000       0.113146         3.0789 
  37   0.0000       0.113147         3.0789 
  38   0.0000       0.126018         3.4291 
  39   0.0000       0.132872         3.6156 
  40   0.0000       0.132873         3.6157 
  41   0.0000       0.135728         3.6933 
  42   0.0000       0.152894         4.1604 
  43   0.0000       0.152895         4.1605 
  44   0.0000       0.159736         4.3466 
  45   0.0000       0.166860         4.5405 
  46   0.0000       0.166861         4.5405 
  47   0.0000       0.172117         4.6836 
  48   0.0000       0.176260         4.7963 
  49   0.0000       0.184498         5.0204 
  50   0.0000       0.184499         5.0205 
  51   0.0000       0.187766         5.1094 
  52   0.0000       0.201595         5.4857 
  53   0.0000       0.201597         5.4857 
  54   0.0000       0.209193         5.6924 
  55   0.0000       0.214384         5.8337 
  56   0.0000       0.214385         5.8337 
  57   0.0000       0.219293         5.9673 
  58   0.0000       0.223876         6.0920 
  59   0.0000       0.223877         6.0920 
  60   0.0000       0.242046         6.5864 
  61   0.0000       0.250359         6.8126 
  62   0.0000       0.250360         6.8126 
  63   0.0000       0.258068         7.0224 
  64   0.0000       0.258069         7.0224 
  65   0.0000       0.275397         7.4939 
  66   0.0000       0.278703         7.5839 
  67   0.0000       0.278706         7.5840 
  68   0.0000       0.289192         7.8693 
  69   0.0000       0.296412         8.0658 
  70   0.0000       0.296494         8.0680 
  71   0.0000       0.296497         8.0681 
  72   0.0000       0.308698         8.4001 
  73   0.0000       0.308699         8.4001 
  74   0.0000       0.312874         8.5137 
  75   0.0000       0.315014         8.5720 
  76   0.0000       0.315018         8.5721 
  77   0.0000       0.328598         8.9416 
  78   0.0000       0.336411         9.1542 
  79   0.0000       0.336414         9.1543 
  80   0.0000       0.340789         9.2733 
  81   0.0000       0.342130         9.3098 
  82   0.0000       0.347930         9.4677 
  83   0.0000       0.347932         9.4677 
  84   0.0000       0.374022        10.1776 
  85   0.0000       0.374026        10.1778 
  86   0.0000       0.374799        10.1988 
  87   0.0000       0.383908        10.4467 
  88   0.0000       0.383911        10.4468 
  89   0.0000       0.388547        10.5729 
  90   0.0000       0.410160        11.1610 
  91   0.0000       0.416875        11.3438 
  92   0.0000       0.416877        11.3438 
  93   0.0000       0.434878        11.8336 
  94   0.0000       0.443481        12.0677 
  95   0.0000       0.451773        12.2934 
  96   0.0000       0.451774        12.2934 
  97   0.0000       0.459439        12.5020 
  98   0.0000       0.461987        12.5713 
  99   0.0000       0.461991        12.5714 
 100   0.0000       0.471316        12.8252 
 101   0.0000       0.471321        12.8253 
 102   0.0000       0.474613        12.9149 
 103   0.0000       0.478154        13.0112 
 104   0.0000       0.479036        13.0352 
 105   0.0000       0.479037        13.0353 
 106   0.0000       0.490277        13.3411 
 107   0.0000       0.490283        13.3413 
 108   0.0000       0.492460        13.4005 
 109   0.0000       0.502875        13.6839 
 110   0.0000       0.502876        13.6840 
 111   0.0000       0.505111        13.7448 
 112   0.0000       0.505115        13.7449 
 113   0.0000       0.532569        14.4919 
 114   0.0000       0.539803        14.6888 
 115   0.0000       0.539813        14.6891 
 116   0.0000       0.549277        14.9466 
 117   0.0000       0.553366        15.0578 
 118   0.0000       0.553371        15.0580 
 119   0.0000       0.563193        15.3253 
 120   0.0000       0.570520        15.5246 
 121   0.0000       0.570522        15.5247 
 122   0.0000       0.582791        15.8586 
 123   0.0000       0.596562        16.2333 
 124   0.0000       0.598330        16.2814 
 125   0.0000       0.600824        16.3493 
 126   0.0000       0.600830        16.3494 
 127   0.0000       0.608781        16.5658 
 128   0.0000       0.608784        16.5659 
 129   0.0000       0.640386        17.4258 
 130   0.0000       0.640643        17.4328 
 131   0.0000       0.640644        17.4328 
 132   0.0000       0.662000        18.0139 
 133   0.0000       0.665816        18.1178 
 134   0.0000       0.665821        18.1179 
 135   0.0000       0.674625        18.3575 
 136   0.0000       0.680713        18.5231 
 137   0.0000       0.692671        18.8485 
 138   0.0000       0.692673        18.8486 
 139   0.0000       0.708820        19.2880 
 140   0.0000       0.711928        19.3726 
 141   0.0000       0.711929        19.3726 
 142   0.0000       0.724982        19.7278 
 143   0.0000       0.724984        19.7278 
 144   0.0000       0.737811        20.0768 
 145   0.0000       0.741676        20.1820 
 146   0.0000       0.741681        20.1822 
 147   0.0000       0.742755        20.2114 
 148   0.0000       0.764387        20.8000 
 149   0.0000       0.764394        20.8002 
 150   0.0000       0.769938        20.9511 
 151   0.0000       0.785699        21.3800 
 152   0.0000       0.785703        21.3801 
 153   0.0000       0.792988        21.5783 
 154   0.0000       0.807753        21.9801 
 155   0.0000       0.807756        21.9802 
 156   0.0000       0.818334        22.2680 
 157   0.0000       0.818338        22.2681 
 158   0.0000       0.820586        22.3293 
 159   0.0000       0.822027        22.3685 
 160   0.0000       0.852409        23.1952 
 161   0.0000       0.861659        23.4469 
 162   0.0000       0.861661        23.4470 
 163   0.0000       0.881245        23.9799 
 164   0.0000       0.881689        23.9920 
 165   0.0000       0.881696        23.9922 
 166   0.0000       0.887463        24.1491 
 167   0.0000       0.902522        24.5589 
 168   0.0000       0.902525        24.5590 
 169   0.0000       0.908701        24.7270 
 170   0.0000       0.917223        24.9589 
 171   0.0000       0.917230        24.9591 
 172   0.0000       0.939077        25.5536 
 173   0.0000       0.941710        25.6252 
 174   0.0000       0.941715        25.6254 
 175   0.0000       0.948989        25.8233 
 176   0.0000       0.948999        25.8236 
 177   0.0000       0.972637        26.4668 
 178   0.0000       0.972639        26.4668 
 179   0.0000       0.990866        26.9628 
 180   0.0000       1.015089        27.6220 
 181   0.0000       1.027745        27.9664 
 182   0.0000       1.027746        27.9664 
 183   0.0000       1.040655        28.3177 
 184   0.0000       1.046675        28.4815 
 185   0.0000       1.067777        29.0557 
 186   0.0000       1.067778        29.0557 
 187   0.0000       1.082829        29.4653 
 188   0.0000       1.082833        29.4654 
 189   0.0000       1.096737        29.8437 
 190   0.0000       1.096739        29.8438 
 191   0.0000       1.134962        30.8839 
 192   0.0000       1.134965        30.8840 
 193   0.0000       1.156727        31.4761 
 194   0.0000       1.175517        31.9874 
 195   0.0000       1.188975        32.3537 
 196   0.0000       1.220340        33.2071 
 197   0.0000       1.220340        33.2072 
 198   0.0000       1.260833        34.3090 
 199   0.0000       1.261393        34.3243 
 200   0.0000       1.261394        34.3243 
 201   0.0000       1.276492        34.7351 
 202   0.0000       1.281934        34.8832 
 203   0.0000       1.281937        34.8833 
 204   0.0000       1.307098        35.5680 
 205   0.0000       1.307102        35.5681 
 206   0.0000       1.319186        35.8969 
 207   0.0000       1.349679        36.7266 
 208   0.0000       1.385424        37.6993 
 209   0.0000       1.385429        37.6995 
 210   0.0000       1.397905        38.0389 
 211   0.0000       1.413166        38.4542 
 212   0.0000       1.414630        38.4941 
 213   0.0000       1.414634        38.4942 
 214   0.0000       1.431571        38.9550 
 215   0.0000       1.470120        40.0040 
 216   0.0000       1.470123        40.0041 
 217   0.0000       1.489505        40.5315 
 218   0.0000       1.509289        41.0698 
 219   0.0000       1.509289        41.0699 
 220   0.0000       1.549504        42.1642 
 221   0.0000       1.568348        42.6769 
 222   0.0000       1.568350        42.6770 
 223   0.0000       1.591193        43.2986 
 224   0.0000       1.591199        43.2987 
 225   0.0000       1.625147        44.2225 
 226   0.0000       1.625153        44.2227 
 227   0.0000       1.630797        44.3762 
 228   0.0000       1.646947        44.8157 
 229   0.0000       1.646949        44.8158 
 230   0.0000       1.681317        45.7510 
 231   0.0000       1.697878        46.2016 
 232   0.0000       1.697879        46.2016 
 233   0.0000       1.721148        46.8348 
 234   0.0000       1.721172        46.8355 
 235   0.0000       1.721180        46.8357 
 236   0.0000       1.770843        48.1871 
 237   0.0000       1.826767        49.7088 
 238   0.0000       1.846504        50.2459 
 239   0.0000       1.846507        50.2460 
 240   0.0000       1.877997        51.1029 
 241   0.0000       1.878002        51.1030 
 242   0.0000       1.968229        53.5582 
 243   0.0000       2.142274        58.2942 
 244   0.0000       2.169110        59.0245 
 245   0.0000       2.169122        59.0248 
 246   0.0000       2.226285        60.5803 
 247   0.0000       2.231030        60.7094 
 248   0.0000       2.231049        60.7099 
 249   0.0000       2.295418        62.4615 
 250   0.0000       2.295418        62.4615 
 251   0.0000       2.308147        62.8079 
 252   0.0000       2.361427        64.2577 
 253   0.0000       2.374548        64.6147 
 254   0.0000       2.374556        64.6149 
 255   0.0000       2.413147        65.6651 
 256   0.0000       2.413151        65.6652 
 257   0.0000       2.440331        66.4048 
 258   0.0000       2.494420        67.8766 
 259   0.0000       2.494423        67.8767 
 260   0.0000       2.517814        68.5132 
 261   0.0000       2.533613        68.9431 
 262   0.0000       2.534213        68.9595 
 263   0.0000       2.534215        68.9595 
 264   0.0000       2.597199        70.6734 
 265   0.0000       2.633519        71.6617 
 266   0.0000       2.659011        72.3554 
 267   0.0000       2.659020        72.3556 
 268   0.0000       2.690380        73.2090 
 269   0.0000       2.690391        73.2093 
 270   0.0000       2.790719        75.9393 
 271   0.0000       2.804359        76.3105 
 272   0.0000       2.815588        76.6160 
 273   0.0000       2.815589        76.6161 
 274   0.0000       2.870686        78.1153 
 275   0.0000       2.911665        79.2304 
 276   0.0000       2.911683        79.2309 
 277   0.0000       2.963662        80.6453 
 278   0.0000       3.092454        84.1499 
 279   0.0000       3.092454        84.1500 
 280   0.0000       3.126380        85.0731 
 281   0.0000       3.126399        85.0736 
 282   0.0000       3.201400        87.1145 
 283   0.0000       3.228770        87.8593 
 284   0.0000       3.303669        89.8974 
 285   0.0000       3.303675        89.8976 
 286   0.0000       3.340395        90.8968 
 287   0.0000       3.378913        91.9449 
 288   0.0000       3.378917        91.9450 
 289   0.0000       3.387011        92.1652 
 290   0.0000       3.387042        92.1661 
 291   0.0000       3.421098        93.0928 
 292   0.0000       3.421099        93.0928 
 293   0.0000       3.446850        93.7936 
 294   0.0000       3.511955        95.5652 
 295   0.0000       3.595934        97.8503 
 296   0.0000       3.620528        98.5196 
 297   0.0000       3.620538        98.5198 
 298   0.0000       3.638310        99.0034 
 299   0.0000       3.638338        99.0042 
 300   0.0000       3.639526        99.0365 
 301   0.0000       3.682597       100.2086 
 302   0.0000       3.708123       100.9032 
 303   0.0000       3.743646       101.8698 
 304   0.0000       3.743648       101.8698 
 305   0.0000       3.772721       102.6610 
 306   0.0000       3.772742       102.6615 
 307   0.0000       3.895644       106.0059 
 308   0.0000       3.914154       106.5096 
 309   0.0000       3.914164       106.5098 
 310   0.0000       3.967458       107.9600 
 311   0.0000       4.008104       109.0660 
 312   0.0000       4.008124       109.0666 
 313   0.0000       4.029318       109.6433 
 314   0.0000       4.121637       112.1554 
 315   0.0000       4.121672       112.1564 
 316   0.0000       4.247654       115.5845 
 317   0.0000       4.305160       117.1494 
 318   0.0000       4.305179       117.1499 
 319   0.0000       4.418832       120.2425 
 320   0.0000       4.642928       126.3405 
 321   0.0000       4.642945       126.3410 
 322   0.0000       4.672584       127.1475 
 323   0.0000       4.812828       130.9637 
 324   0.0000       4.812874       130.9650 
 325   0.0000       4.830825       131.4534 
 326   0.0000       4.948228       134.6481 
 327   0.0000       4.967793       135.1805 
 328   0.0000       4.967831       135.1816 
 329   0.0000       5.040747       137.1657 
 330   0.0000       5.040758       137.1660 
 331   0.0000       5.151775       140.1869 
 332   0.0000       5.151799       140.1876 
 333   0.0000       5.270333       143.4130 
 334   0.0000       5.324113       144.8765 
 335   0.0000       5.328658       145.0001 
 336   0.0000       5.328662       145.0003 
 337   0.0000       5.359324       145.8346 
 338   0.0000       5.359328       145.8347 
 339   0.0000       5.502211       149.7228 
 340   0.0000       5.506159       149.8302 
 341   0.0000       5.506169       149.8305 
 342   0.0000       5.647888       153.6868 
 343   0.0000       5.647901       153.6872 
 344   0.0000       5.670603       154.3049 
 345   0.0000       5.670642       154.3060 
 346   0.0000       5.683653       154.6601 
 347   0.0000       5.792689       157.6271 
 348   0.0000       5.809857       158.0942 
 349   0.0000       5.841563       158.9570 
 350   0.0000       5.841568       158.9572 
 351   0.0000       6.028296       164.0383 
 352   0.0000       6.079055       165.4195 
 353   0.0000       6.079058       165.4196 
 354   0.0000       6.210140       168.9865 
 355   0.0000       6.234185       169.6408 
 356   0.0000       6.389074       173.8555 
 357   0.0000       6.389081       173.8557 
 358   0.0000       6.489871       176.5984 
 359   0.0000       6.537656       177.8987 
 360   0.0000       6.537657       177.8987 
 361   0.0000       6.646097       180.8495 
 362   0.0000       6.646157       180.8511 
 363   0.0000       6.814198       185.4238 
 364   0.0000       6.965596       189.5435 
 365   0.0000       6.965638       189.5446 
 366   0.0000       7.027718       191.2339 
 367   0.0000       7.030143       191.2999 
 368   0.0000       7.097761       193.1399 
 369   0.0000       7.097763       193.1399 
 370   0.0000       7.112865       193.5509 
 371   0.0000       7.112898       193.5518 
 372   0.0000       7.154164       194.6747 
 373   0.0000       7.154170       194.6749 
 374   0.0000       7.213122       196.2790 
 375   0.0000       7.347146       199.9260 
 376   0.0000       7.430348       202.1900 
 377   0.0000       7.430355       202.1902 
 378   0.0000       7.433058       202.2638 
 379   0.0000       7.743359       210.7075 
 380   0.0000       8.055692       219.2065 
 381   0.0000       8.055702       219.2068 
 382   0.0000       8.453310       230.0263 
 383   0.0000       8.498507       231.2561 
 384   0.0000       8.498523       231.2566 
 385   0.0000       8.611710       234.3365 
 386   0.0000       8.611721       234.3368 
 387   0.0000       8.633810       234.9379 
 388   0.0000       8.714637       237.1373 
 389   0.0000       8.714640       237.1374 
 390   0.0000       8.840848       240.5717 
 391   0.0000       8.915612       242.6061 
 392   0.0000       8.915618       242.6063 
 393   0.0000       8.924005       242.8345 
 394   0.0000       8.970575       244.1018 
 395   0.0000       8.978655       244.3216 
 396   0.0000       8.978662       244.3218 
 397   0.0000       9.078351       247.0345 
 398   0.0000       9.089619       247.3411 
 399   0.0000       9.089644       247.3418 
 400   0.0000       9.185790       249.9581 
 401   0.0000       9.379523       255.2298 
 402   0.0000       9.379549       255.2305 
 403   0.0000       9.423081       256.4151 
 404   0.0000       9.423108       256.4158 
 405   0.0000       9.448556       257.1083 
 406   0.0000       9.506322       258.6802 
 407   0.0000       9.529046       259.2985 
 408   0.0000       9.529051       259.2986 
 409   0.0000      10.148106       276.1440 
 410   0.0000      10.148112       276.1442 
 411   0.0000      10.175337       276.8850 
 412   0.0000      10.239249       278.6241 
 413   0.0000      10.239297       278.6254 
 414   0.0000      10.334740       281.2226 
 415   0.0000      10.689547       290.8774 
 416   0.0000      11.133902       302.9689 
 417   0.0000      11.585362       315.2537 
 418   0.0000      11.585381       315.2543 
 419   0.0000      12.242270       333.1291 
 420   0.0000      12.242270       333.1291 
 421   0.0000      12.280437       334.1677 
 422   0.0000      12.368106       336.5533 
 423   0.0000      12.368118       336.5536 
 424   0.0000      12.414138       337.8059 
 425   0.0000      12.414142       337.8060 
 426   0.0000      12.441705       338.5560 
 427   0.0000      12.513344       340.5054 
 428   0.0000      12.513359       340.5058 
 429   0.0000      12.551272       341.5375 
 430   0.0000      12.659696       344.4878 
 431   0.0000      12.659700       344.4879 
 432   0.0000      12.676012       344.9318 
 433   0.0000      12.676012       344.9318 
 434   0.0000      12.729592       346.3898 
 435   0.0000      12.733132       346.4861 
 436   0.0000      12.733140       346.4864 
 437   0.0000      12.740292       346.6810 
 438   0.0000      12.766000       347.3805 
 439   0.0000      12.828751       349.0881 
 440   0.0000      12.828751       349.0881 
 441   0.0000      12.897662       350.9632 
 442   0.0000      12.897663       350.9633 
 443   0.0000      12.909718       351.2913 
 444   0.0000      12.960860       352.6829 
 445   0.0000      13.049307       355.0897 
 446   0.0000      13.049310       355.0898 
 447   0.0000      13.086584       356.1041 
 448   0.0000      13.086593       356.1043 
 449   0.0000      13.087136       356.1191 
 450   0.0000      13.168310       358.3279 
 451   0.0000      13.168336       358.3286 
 452   0.0000      13.296108       361.8055 
 453   0.0000      13.320864       362.4791 
 454   0.0000      13.320895       362.4800 
 455   0.0000      13.384810       364.2192 
 456   0.0000      14.440652       392.9501 
 457   0.0000      14.440657       392.9503 
 458   0.0000      14.737026       401.0149 
 459   0.0000      15.050510       409.5452 
 460   0.0000      15.062016       409.8583 
 461   0.0000      15.235500       414.5790 
 462   0.0000      15.235508       414.5792 
 463   0.0000      15.313890       416.7121 
 464   0.0000      15.313901       416.7124 
 465   0.0000      15.603265       424.5864 
 466   0.0000      15.666820       426.3158 
 467   0.0000      15.720000       427.7630 
 468   0.0000      15.720014       427.7633 
 469   0.0000      16.215155       441.2368 
 470   0.0000      16.215189       441.2377 
 471   0.0000      16.538258       450.0289 
 472   0.0000      16.727691       455.1836 
 473   0.0000      16.736511       455.4236 
 474   0.0000      16.736517       455.4238 
 475   0.0000      16.740054       455.5200 
 476   0.0000      16.740058       455.5201 
 477   0.0000      16.740177       455.5234 
 478   0.0000      16.742274       455.5804 
 479   0.0000      16.774349       456.4532 
 480   0.0000      16.774351       456.4533 
 481   0.0000      16.789198       456.8573 
 482   0.0000      16.789199       456.8573 
 483   0.0000      16.792746       456.9538 
 484   0.0000      16.897049       459.7921 
 485   0.0000      16.903499       459.9676 
 486   0.0000      16.903503       459.9677 
 487   0.0000      17.137217       466.3274 
 488   0.0000      17.137218       466.3274 
 489   0.0000      17.141601       466.4467 
 490   0.0000      17.188672       467.7275 
 491   0.0000      17.363263       472.4784 
 492   0.0000      17.407888       473.6927 
 493   0.0000      17.407902       473.6931 
 494   0.0000      17.704387       481.7609 
 495   0.0000      17.704434       481.7622 
 496   0.0000      17.748783       482.9689 
 497   0.0000      17.923366       487.7196 
 498   0.0000      17.923460       487.7221 
 499   0.0000      20.118463       547.4512 
 500   0.0000      20.118514       547.4526 
 501   0.0000      20.189661       549.3886 
 502   0.0000      20.222742       550.2888 
 503   0.0000      20.587043       560.2019 
 504   0.0000      20.587048       560.2021 
 505   0.0000      20.840581       567.1010 
 506   0.0000      21.137612       575.1837 
 507   0.0000      21.137618       575.1838 
 508   0.0000      23.358888       635.6276 
 509   0.0000      23.401082       636.7758 
 510   0.0000      23.401095       636.7762 
 511   0.0000      23.445523       637.9851 
 512   0.0000      23.445540       637.9856 
 513   0.0000      23.484447       639.0443 
 514   0.0000      23.804299       647.7479 
 515   0.0000      23.991045       652.8295 
 516   0.0000      23.991059       652.8299 
 517   0.0000      26.349580       717.0085 
 518   0.0000      30.413110       827.5828 
 519   0.0000      30.413126       827.5832 
 520   0.0000      30.710537       835.6762 
 521   0.0000      30.710543       835.6764 
 522   0.0000      31.244643       850.2100 
 523   0.0000      39.772634      1082.2684 
 524   0.0000      39.905107      1085.8732 
 525   0.0000      39.905149      1085.8743 
 526   0.0000      41.665120      1133.7656 
 527   0.0000      41.665125      1133.7657 
 528   0.0000      41.924555      1140.8252 
 529   0.0000      42.941536      1168.4986 
 530   0.0000      55.435083      1508.4653 
 531   0.0000      55.435089      1508.4655 
 532   0.0000      55.828122      1519.1604 
 533   0.0000      55.828153      1519.1613 
 534   0.0000      55.868622      1520.2625 
 535   0.0000      90.974230      2475.5347 
 536   0.0000      91.000346      2476.2453 
 537   0.0000      91.000354      2476.2455 
 538   0.0000      91.035940      2477.2139 
 539   0.0000      91.035945      2477.2140 
 540   0.0000      91.064003      2477.9775 
 541   0.0000      91.327134      2485.1376 
 542   0.0000      91.327170      2485.1386 
 543   0.0000      91.419589      2487.6535 
 544   0.0000      91.419603      2487.6539 
 545   0.0000      91.552054      2491.2580 
 546   0.0000      91.552056      2491.2581 
 547   0.0000      91.578145      2491.9680 
 548   0.0000      91.889733      2500.4468 
 549   0.0000     201.795187      5491.1262 

                    ********************************
                    * MULLIKEN POPULATION ANALYSIS *
                    ********************************

--------------------------------------------
MULLIKEN ATOMIC CHARGES AND SPIN POPULATIONS
--------------------------------------------
   0 Si:    0.889060   -0.000000
   1 F :   -0.361622    0.000000
   2 H :   -0.175821    0.000000
   3 H :   -0.175798    0.000000
   4 H :   -0.175819   -0.000000
Sum of atomic charges         :    0.0000000
Sum of atomic spin populations:    0.0000000

-----------------------------------------------------
MULLIKEN REDUCED ORBITAL CHARGES AND SPIN POPULATIONS
-----------------------------------------------------
CHARGE
  0 Sis       :     5.012813  s :     5.012813
      pz      :     2.416431  p :     7.669628
      px      :     2.626602
      py      :     2.626595
      dz2     :     0.077792  d :     0.369838
      dxz     :     0.105713
      dyz     :     0.105712
      dx2y2   :     0.040314
      dxy     :     0.040307
      f0      :     0.011034  f :     0.049109
      f+1     :     0.015914
      f-1     :     0.015914
      f+2     :     0.001431
      f-2     :     0.001431
      f+3     :     0.000000
      f-3     :     0.003384
      g0      :     0.002987  g :     0.008221
      g+1     :     0.001988
      g-1     :     0.001988
      g+2     :     0.000009
      g-2     :     0.000009
      g+3     :     0.000000
      g-3     :     0.000333
      g+4     :     0.000454
      g-4     :     0.000454
      h0      :     0.000474  h :     0.001332
      h+1     :     0.000288
      h-1     :     0.000288
      h+2     :     0.000038
      h-2     :     0.000038
      h+3     :    -0.000000
      h-3     :    -0.000000
      h+4     :     0.000058
      h-4     :     0.000058
      h+5     :     0.000045
      h-5     :     0.000045
  1 F s       :     3.905147  s :     3.905147
      pz      :     1.596040  p :     5.391046
      px      :     1.897502
      py      :     1.897504
      dz2     :     0.003781  d :     0.050259
      dxz     :     0.024483
      dyz     :     0.024487
      dx2y2   :    -0.001246
      dxy     :    -0.001246
      f0      :     0.000824  f :     0.012697
      f+1     :     0.007031
      f-1     :     0.007032
      f+2     :    -0.001043
      f-2     :    -0.001043
      f+3     :     0.000000
      f-3     :    -0.000105
      g0      :     0.000005  g :     0.002337
      g+1     :     0.001725
      g-1     :     0.001725
      g+2     :    -0.000463
      g-2     :    -0.000463
      g+3     :     0.000000
      g-3     :    -0.000160
      g+4     :    -0.000016
      g-4     :    -0.000016
      h0      :    -0.000067  h :     0.000135
      h+1     :     0.000257
      h-1     :     0.000257
      h+2     :    -0.000089
      h-2     :    -0.000089
      h+3     :     0.000000
      h-3     :    -0.000088
      h+4     :    -0.000021
      h-4     :    -0.000021
      h+5     :    -0.000000
      h-5     :    -0.000000
  2 H s       :     1.202323  s :     1.202323
      pz      :     0.000761  p :    -0.004903
      px      :    -0.010414
      py      :     0.004751
      dz2     :    -0.005664  d :    -0.015359
      dxz     :     0.000843
      dyz     :    -0.000590
      dx2y2   :     0.004229
      dxy     :    -0.014177
      f0      :     0.000190  f :    -0.005777
      f+1     :     0.001699
      f-1     :    -0.001282
      f+2     :     0.000844
      f-2     :    -0.001627
      f+3     :    -0.005472
      f-3     :    -0.000128
      g0      :    -0.000049  g :    -0.000464
      g+1     :     0.000137
      g-1     :    -0.000008
      g+2     :    -0.000033
      g-2     :     0.000219
      g+3     :    -0.000222
      g-3     :     0.000168
      g+4     :    -0.000038
      g-4     :    -0.000637
  3 H s       :     1.202299  s :     1.202299
      pz      :     0.000761  p :    -0.004902
      px      :     0.000957
      py      :    -0.006620
      dz2     :    -0.005664  d :    -0.015358
      dxz     :    -0.000232
      dyz     :     0.000484
      dx2y2   :    -0.009574
      dxy     :    -0.000372
      f0      :     0.000189  f :    -0.005777
      f+1     :    -0.000537
      f-1     :     0.000954
      f+2     :    -0.001009
      f-2     :     0.000226
      f+3     :    -0.005472
      f-3     :    -0.000128
      g0      :    -0.000049  g :    -0.000464
      g+1     :     0.000028
      g-1     :     0.000101
      g+2     :     0.000156
      g-2     :     0.000030
      g+3     :    -0.000223
      g-3     :     0.000168
      g+4     :    -0.000488
      g-4     :    -0.000188
  4 H s       :     1.202315  s :     1.202315
      pz      :     0.000762  p :    -0.004900
      px      :     0.000962
      py      :    -0.006624
      dz2     :    -0.005663  d :    -0.015355
      dxz     :    -0.000232
      dyz     :     0.000484
      dx2y2   :    -0.009573
      dxy     :    -0.000372
      f0      :     0.000189  f :    -0.005776
      f+1     :    -0.000537
      f-1     :     0.000954
      f+2     :    -0.001009
      f-2     :     0.000226
      f+3     :    -0.005472
      f-3     :    -0.000128
      g0      :    -0.000049  g :    -0.000464
      g+1     :     0.000028
      g-1     :     0.000101
      g+2     :     0.000156
      g-2     :     0.000030
      g+3     :    -0.000222
      g-3     :     0.000168
      g+4     :    -0.000488
      g-4     :    -0.000188

SPIN
  0 Sis       :    -0.000000  s :    -0.000000
      pz      :     0.000000  p :    -0.000000
      px      :    -0.000000
      py      :    -0.000000
      dz2     :     0.000000  d :     0.000000
      dxz     :    -0.000000
      dyz     :     0.000000
      dx2y2   :     0.000000
      dxy     :    -0.000000
      f0      :    -0.000000  f :     0.000000
      f+1     :     0.000000
      f-1     :    -0.000000
      f+2     :     0.000000
      f-2     :    -0.000000
      f+3     :    -0.000000
      f-3     :     0.000000
      g0      :     0.000000  g :     0.000000
      g+1     :    -0.000000
      g-1     :     0.000000
      g+2     :    -0.000000
      g-2     :     0.000000
      g+3     :    -0.000000
      g-3     :     0.000000
      g+4     :     0.000000
      g-4     :    -0.000000
      h0      :    -0.000000  h :    -0.000000
      h+1     :    -0.000000
      h-1     :     0.000000
      h+2     :    -0.000000
      h-2     :     0.000000
      h+3     :     0.000000
      h-3     :    -0.000000
      h+4     :     0.000000
      h-4     :    -0.000000
      h+5     :     0.000000
      h-5     :    -0.000000
  1 F s       :     0.000000  s :     0.000000
      pz      :     0.000000  p :     0.000000
      px      :     0.000000
      py      :     0.000000
      dz2     :     0.000000  d :     0.000000
      dxz     :    -0.000000
      dyz     :     0.000000
      dx2y2   :    -0.000000
      dxy     :    -0.000000
      f0      :     0.000000  f :     0.000000
      f+1     :    -0.000000
      f-1     :     0.000000
      f+2     :    -0.000000
      f-2     :    -0.000000
      f+3     :    -0.000000
      f-3     :     0.000000
      g0      :     0.000000  g :     0.000000
      g+1     :    -0.000000
      g-1     :     0.000000
      g+2     :    -0.000000
      g-2     :    -0.000000
      g+3     :    -0.000000
      g-3     :     0.000000
      g+4     :     0.000000
      g-4     :    -0.000000
      h0      :     0.000000  h :    -0.000000
      h+1     :    -0.000000
      h-1     :    -0.000000
      h+2     :    -0.000000
      h-2     :    -0.000000
      h+3     :    -0.000000
      h-3     :     0.000000
      h+4     :     0.000000
      h-4     :     0.000000
      h+5     :    -0.000000
      h-5     :    -0.000000
  2 H s       :     0.000000  s :     0.000000
      pz      :    -0.000000  p :     0.000000
      px      :    -0.000000
      py      :     0.000000
      dz2     :     0.000000  d :     0.000000
      dxz     :    -0.000000
      dyz     :    -0.000000
      dx2y2   :     0.000000
      dxy     :    -0.000000
      f0      :     0.000000  f :    -0.000000
      f+1     :     0.000000
      f-1     :    -0.000000
      f+2     :    -0.000000
      f-2     :    -0.000000
      f+3     :     0.000000
      f-3     :     0.000000
      g0      :    -0.000000  g :    -0.000000
      g+1     :     0.000000
      g-1     :     0.000000
      g+2     :    -0.000000
      g-2     :     0.000000
      g+3     :    -0.000000
      g-3     :     0.000000
      g+4     :    -0.000000
      g-4     :    -0.000000
  3 H s       :     0.000000  s :     0.000000
      pz      :    -0.000000  p :     0.000000
      px      :     0.000000
      py      :     0.000000
      dz2     :     0.000000  d :     0.000000
      dxz     :     0.000000
      dyz     :    -0.000000
      dx2y2   :     0.000000
      dxy     :     0.000000
      f0      :     0.000000  f :    -0.000000
      f+1     :    -0.000000
      f-1     :    -0.000000
      f+2     :     0.000000
      f-2     :     0.000000
      f+3     :    -0.000000
      f-3     :     0.000000
      g0      :    -0.000000  g :    -0.000000
      g+1     :    -0.000000
      g-1     :    -0.000000
      g+2     :    -0.000000
      g-2     :    -0.000000
      g+3     :     0.000000
      g-3     :     0.000000
      g+4     :    -0.000000
      g-4     :     0.000000
  4 H s       :     0.000000  s :     0.000000
      pz      :    -0.000000  p :    -0.000000
      px      :    -0.000000
      py      :    -0.000000
      dz2     :     0.000000  d :    -0.000000
      dxz     :    -0.000000
      dyz     :    -0.000000
      dx2y2   :     0.000000
      dxy     :    -0.000000
      f0      :    -0.000000  f :    -0.000000
      f+1     :    -0.000000
      f-1     :    -0.000000
      f+2     :    -0.000000
      f-2     :    -0.000000
      f+3     :    -0.000000
      f-3     :    -0.000000
      g0      :    -0.000000  g :    -0.000000
      g+1     :    -0.000000
      g-1     :    -0.000000
      g+2     :    -0.000000
      g-2     :    -0.000000
      g+3     :    -0.000000
      g-3     :    -0.000000
      g+4     :    -0.000000
      g-4     :    -0.000000


                     *******************************
                     * LOEWDIN POPULATION ANALYSIS *
                     *******************************

-------------------------------------------
LOEWDIN ATOMIC CHARGES AND SPIN POPULATIONS
-------------------------------------------
   0 Si:    1.477519   -0.000000
   1 F :   -0.060477    0.000000
   2 H :   -0.472335   -0.000000
   3 H :   -0.472354    0.000000
   4 H :   -0.472354   -0.000000

----------------------------------------------------
LOEWDIN REDUCED ORBITAL CHARGES AND SPIN POPULATIONS
----------------------------------------------------
CHARGE
  0 Sis       :     4.284737  s :     4.284737
      pz      :     2.290123  p :     7.210771
      px      :     2.460327
      py      :     2.460321
      dz2     :     0.185842  d :     0.617311
      dxz     :     0.144588
      dyz     :     0.144585
      dx2y2   :     0.071153
      dxy     :     0.071144
      f0      :     0.094314  f :     0.273342
      f+1     :     0.072021
      f-1     :     0.072021
      f+2     :     0.011471
      f-2     :     0.011470
      f+3     :     0.000000
      f-3     :     0.012046
      g0      :     0.038763  g :     0.109340
      g+1     :     0.032166
      g-1     :     0.032165
      g+2     :     0.000168
      g-2     :     0.000168
      g+3     :     0.000000
      g-3     :     0.002057
      g+4     :     0.001927
      g-4     :     0.001928
      h0      :     0.009941  h :     0.026978
      h+1     :     0.007634
      h-1     :     0.007634
      h+2     :     0.000295
      h-2     :     0.000295
      h+3     :     0.000000
      h-3     :     0.000085
      h+4     :     0.000243
      h-4     :     0.000243
      h+5     :     0.000305
      h-5     :     0.000305
  1 F s       :     3.388887  s :     3.388887
      pz      :     1.731183  p :     5.071132
      px      :     1.669975
      py      :     1.669974
      dz2     :     0.082324  d :     0.250109
      dxz     :     0.081139
      dyz     :     0.081138
      dx2y2   :     0.002754
      dxy     :     0.002753
      f0      :     0.037348  f :     0.173965
      f+1     :     0.059768
      f-1     :     0.059766
      f+2     :     0.008417
      f-2     :     0.008415
      f+3     :     0.000000
      f-3     :     0.000252
      g0      :     0.022920  g :     0.106781
      g+1     :     0.031051
      g-1     :     0.031050
      g+2     :     0.010200
      g-2     :     0.010199
      g+3     :     0.000000
      g-3     :     0.001332
      g+4     :     0.000015
      g-4     :     0.000015
      h0      :     0.026267  h :     0.069603
      h+1     :     0.013924
      h-1     :     0.013924
      h+2     :     0.006655
      h-2     :     0.006655
      h+3     :     0.000000
      h-3     :     0.001750
      h+4     :     0.000179
      h-4     :     0.000179
      h+5     :     0.000035
      h-5     :     0.000035
  2 H s       :     0.779144  s :     0.779144
      pz      :     0.024965  p :     0.207871
      px      :     0.049482
      py      :     0.133424
      dz2     :     0.035936  d :     0.203658
      dxz     :     0.006995
      dyz     :     0.033614
      dx2y2   :     0.050332
      dxy     :     0.076781
      f0      :     0.015472  f :     0.159278
      f+1     :     0.013593
      f-1     :     0.041939
      f+2     :     0.016092
      f-2     :     0.010791
      f+3     :     0.052252
      f-3     :     0.009140
      g0      :     0.016628  g :     0.122384
      g+1     :     0.002094
      g-1     :     0.023188
      g+2     :     0.019031
      g-2     :     0.022176
      g+3     :     0.007006
      g-3     :     0.008319
      g+4     :     0.002498
      g-4     :     0.021444
  3 H s       :     0.779148  s :     0.779148
      pz      :     0.024966  p :     0.207876
      px      :     0.112441
      py      :     0.070469
      dz2     :     0.035937  d :     0.203664
      dxz     :     0.026961
      dyz     :     0.013650
      dx2y2   :     0.070169
      dxy     :     0.056946
      f0      :     0.015473  f :     0.159281
      f+1     :     0.034853
      f-1     :     0.020679
      f+2     :     0.012117
      f-2     :     0.014767
      f+3     :     0.052252
      f-3     :     0.009141
      g0      :     0.016628  g :     0.122385
      g+1     :     0.017915
      g-1     :     0.007367
      g+2     :     0.021390
      g-2     :     0.019817
      g+3     :     0.007006
      g-3     :     0.008319
      g+4     :     0.016708
      g-4     :     0.007234
  4 H s       :     0.779148  s :     0.779148
      pz      :     0.024966  p :     0.207876
      px      :     0.112441
      py      :     0.070469
      dz2     :     0.035937  d :     0.203664
      dxz     :     0.026961
      dyz     :     0.013650
      dx2y2   :     0.070169
      dxy     :     0.056946
      f0      :     0.015473  f :     0.159281
      f+1     :     0.034853
      f-1     :     0.020679
      f+2     :     0.012117
      f-2     :     0.014767
      f+3     :     0.052252
      f-3     :     0.009141
      g0      :     0.016628  g :     0.122385
      g+1     :     0.017915
      g-1     :     0.007367
      g+2     :     0.021390
      g-2     :     0.019817
      g+3     :     0.007006
      g-3     :     0.008319
      g+4     :     0.016708
      g-4     :     0.007234

SPIN
  0 Sis       :    -0.000000  s :    -0.000000
      pz      :    -0.000000  p :    -0.000000
      px      :    -0.000000
      py      :    -0.000000
      dz2     :     0.000000  d :     0.000000
      dxz     :    -0.000000
      dyz     :     0.000000
      dx2y2   :     0.000000
      dxy     :     0.000000
      f0      :    -0.000000  f :    -0.000000
      f+1     :     0.000000
      f-1     :     0.000000
      f+2     :    -0.000000
      f-2     :    -0.000000
      f+3     :     0.000000
      f-3     :     0.000000
      g0      :     0.000000  g :     0.000000
      g+1     :    -0.000000
      g-1     :    -0.000000
      g+2     :    -0.000000
      g-2     :    -0.000000
      g+3     :     0.000000
      g-3     :    -0.000000
      g+4     :     0.000000
      g-4     :    -0.000000
      h0      :    -0.000000  h :    -0.000000
      h+1     :     0.000000
      h-1     :     0.000000
      h+2     :    -0.000000
      h-2     :     0.000000
      h+3     :     0.000000
      h-3     :    -0.000000
      h+4     :    -0.000000
      h-4     :     0.000000
      h+5     :    -0.000000
      h-5     :     0.000000
  1 F s       :     0.000000  s :     0.000000
      pz      :     0.000000  p :     0.000000
      px      :    -0.000000
      py      :     0.000000
      dz2     :     0.000000  d :     0.000000
      dxz     :    -0.000000
      dyz     :    -0.000000
      dx2y2   :     0.000000
      dxy     :     0.000000
      f0      :    -0.000000  f :    -0.000000
      f+1     :    -0.000000
      f-1     :     0.000000
      f+2     :    -0.000000
      f-2     :    -0.000000
      f+3     :     0.000000
      f-3     :     0.000000
      g0      :    -0.000000  g :    -0.000000
      g+1     :    -0.000000
      g-1     :    -0.000000
      g+2     :     0.000000
      g-2     :     0.000000
      g+3     :     0.000000
      g-3     :     0.000000
      g+4     :     0.000000
      g-4     :    -0.000000
      h0      :    -0.000000  h :    -0.000000
      h+1     :    -0.000000
      h-1     :     0.000000
      h+2     :    -0.000000
      h-2     :     0.000000
      h+3     :     0.000000
      h-3     :     0.000000
      h+4     :     0.000000
      h-4     :     0.000000
      h+5     :    -0.000000
      h-5     :    -0.000000
  2 H s       :     0.000000  s :     0.000000
      pz      :    -0.000000  p :    -0.000000
      px      :     0.000000
      py      :    -0.000000
      dz2     :    -0.000000  d :    -0.000000
      dxz     :    -0.000000
      dyz     :    -0.000000
      dx2y2   :    -0.000000
      dxy     :    -0.000000
      f0      :    -0.000000  f :     0.000000
      f+1     :     0.000000
      f-1     :     0.000000
      f+2     :     0.000000
      f-2     :     0.000000
      f+3     :    -0.000000
      f-3     :    -0.000000
      g0      :    -0.000000  g :    -0.000000
      g+1     :     0.000000
      g-1     :    -0.000000
      g+2     :    -0.000000
      g-2     :     0.000000
      g+3     :     0.000000
      g-3     :     0.000000
      g+4     :     0.000000
      g-4     :     0.000000
  3 H s       :     0.000000  s :     0.000000
      pz      :    -0.000000  p :     0.000000
      px      :     0.000000
      py      :    -0.000000
      dz2     :    -0.000000  d :    -0.000000
      dxz     :    -0.000000
      dyz     :    -0.000000
      dx2y2   :    -0.000000
      dxy     :    -0.000000
      f0      :    -0.000000  f :     0.000000
      f+1     :     0.000000
      f-1     :     0.000000
      f+2     :    -0.000000
      f-2     :    -0.000000
      f+3     :    -0.000000
      f-3     :     0.000000
      g0      :     0.000000  g :     0.000000
      g+1     :    -0.000000
      g-1     :    -0.000000
      g+2     :    -0.000000
      g-2     :     0.000000
      g+3     :     0.000000
      g-3     :    -0.000000
      g+4     :     0.000000
      g-4     :    -0.000000
  4 H s       :     0.000000  s :     0.000000
      pz      :    -0.000000  p :    -0.000000
      px      :    -0.000000
      py      :    -0.000000
      dz2     :     0.000000  d :    -0.000000
      dxz     :    -0.000000
      dyz     :    -0.000000
      dx2y2   :    -0.000000
      dxy     :    -0.000000
      f0      :    -0.000000  f :     0.000000
      f+1     :     0.000000
      f-1     :     0.000000
      f+2     :     0.000000
      f-2     :    -0.000000
      f+3     :     0.000000
      f-3     :    -0.000000
      g0      :    -0.000000  g :    -0.000000
      g+1     :    -0.000000
      g-1     :    -0.000000
      g+2     :    -0.000000
      g-2     :    -0.000000
      g+3     :    -0.000000
      g-3     :    -0.000000
      g+4     :     0.000000
      g-4     :     0.000000


                      *****************************
                      * MAYER POPULATION ANALYSIS *
                      *****************************

  NA   - Mulliken gross atomic population
  ZA   - Total nuclear charge
  QA   - Mulliken gross atomic charge
  VA   - Mayer's total valence
  BVA  - Mayer's bonded valence
  FA   - Mayer's free valence

  ATOM       NA         ZA         QA         VA         BVA        FA
  0 Si    13.1109    14.0000     0.8891     3.9125     3.9125     0.0000
  1 F      9.3616     9.0000    -0.3616     1.3390     1.3390     0.0000
  2 H      1.1758     1.0000    -0.1758     0.8437     0.8437     0.0000
  3 H      1.1758     1.0000    -0.1758     0.8437     0.8437     0.0000
  4 H      1.1758     1.0000    -0.1758     0.8437     0.8437    -0.0000

  Mayer bond orders larger than 0.1
B(  0-Si,  1-F ) :   1.1941 B(  0-Si,  2-H ) :   0.9061 B(  0-Si,  3-H ) :   0.9061 
B(  0-Si,  4-H ) :   0.9061 

-------
TIMINGS
-------

Total SCF time: 0 days 0 hours 46 min 10 sec 

Total time                  ....    2770.456 sec
Sum of individual times     ....    2768.990 sec  ( 99.9%)

Fock matrix formation       ....    2757.782 sec  ( 99.5%)
  XC integration            ....      71.865 sec  (  2.6% of F)
    Basis function eval.    ....       4.906 sec  (  6.8% of XC)
    Density eval.           ....      21.485 sec  ( 29.9% of XC)
    XC-Functional eval.     ....       0.408 sec  (  0.6% of XC)
    XC-Potential eval.      ....      44.027 sec  ( 61.3% of XC)
Diagonalization             ....       3.555 sec  (  0.1%)
Density matrix formation    ....       0.047 sec  (  0.0%)
Population analysis         ....       0.294 sec  (  0.0%)
Initial guess               ....       3.130 sec  (  0.1%)
Orbital Transformation      ....       0.000 sec  (  0.0%)
Orbital Orthonormalization  ....       0.000 sec  (  0.0%)
DIIS solution               ....       1.759 sec  (  0.1%)
Grid generation             ....       2.423 sec  (  0.1%)

-------------------------   --------------------
FINAL SINGLE POINT ENERGY      -391.005823942404
-------------------------   --------------------


                            ***************************************
                            *     ORCA property calculations      *
                            ***************************************

                                    ---------------------
                                    Active property flags
                                    ---------------------
   (+) Dipole Moment
   (+) Polarizability


------------------------------------------------------------------------------
                       ORCA ELECTRIC PROPERTIES CALCULATION
------------------------------------------------------------------------------

Dipole Moment Calculation                       ... on
Quadrupole Moment Calculation                   ... off
Polarizability Calculation                      ... Analytic (CP-SCF)
GBWName                                         ... sih3f_pbe.gbw
Electron density file                           ... sih3f_pbe.scfp.tmp
The origin for moment calculation is the CENTER OF MASS  = ( 0.000000,  0.000004 -0.147430)

-------------
DIPOLE MOMENT
-------------
                                X             Y             Z
Electronic contribution:     -0.00000      -0.00014      -3.37343
Nuclear contribution   :      0.00000       0.00009       3.83545
                        -----------------------------------------
Total Dipole Moment    :     -0.00000      -0.00005       0.46202
                        -----------------------------------------
Magnitude (a.u.)       :      0.46202
Magnitude (Debye)      :      1.17436



--------------------
Rotational spectrum 
--------------------
 
Rotational constants in cm-1:     2.837384     0.478111     0.478110 
Rotational constants in MHz : 85062.627148 14333.413377 14333.371477 

 Dipole components along the rotational axes: 
x,y,z [a.u.] :    -0.462020    -0.000000     0.000047 
x,y,z [Debye]:    -1.174363    -0.000000     0.000121 

 
Transforming and storing MO dipole integrals   ... done

                ... starting polarizability calculation

Opening the Dipole integral file               ... (sih3f_pbe.dmo.tmp) done
Reading Dipole-MO integrals                    ... done
Solving CP-SCF equations                       ... 

           ************************************************************
           *        Program running with 4 parallel MPI-processes     *
           *              working on a common directory               *
           ************************************************************

------------------------------------------------------------------------------
                           ORCA CP-SCF CALCULATION
------------------------------------------------------------------------------

Input orbitals are from        ... sih3f_pbe.gbw
Input Perturbation             ... sih3f_pbe.cpv.tmp
Wavefunction output            ... sih3f_pbe.cpu.tmp
Perturbation mode              ... Real perturbation (singlet)
Solver                         ... POPLE
Max. number of iterations      ... 200
Convergence tolerance          ... 1.000e-06
Integral handling              ... Direct
Number of perturbations        ... 3
Number of operators            ... 2
Orbital ranges used for CP-SCF:
 Operator 0:  Orbitals   0... 12  to  13...549
 Operator 1:  Orbitals   0... 12  to  13...549
DFT calculation                         ... on
Exchange functional (SCF)               ... PBE
Exchange functional (CP-SCF)            ... PBE
   PBE kappa parameter  XKappa (SCF)    ...  0.804000
   PBE kappa parameter  XKappa (CP-SCF) ...  0.804000
   PBE mue parameter   XMuePBE (SCF)    ...  0.219520
   PBE mue parameter   XMuePBE (CP-SCF) ...  0.219520
Correlation functional (SCF)            ... PBE
Correlation functional (CP-SCF)         ... PBE
   PBE beta parameter CBetaPBE (SCF)    ...  0.066725
   PBE beta parameter CBetaPBE (CP-SCF) ...  0.066725
 LDA part of GGA corr.  LDAOpt (SCF)    ... PW91-LDA
 LDA part of GGA corr.  LDAOpt (CP-SCF) ... PW91-LDA
Variables per vector in CP-SCF ... 13962
Number of vectors sought       ... 3
Recalculating density on grid  ... done
Calculating the xc-kernel      ... done
     CP-SCF ITERATION   0: 
     CP-SCF ITERATION   1:      0.312617225698
     CP-SCF ITERATION   2:      0.005145588919
     CP-SCF ITERATION   3:      0.000288777978
     CP-SCF ITERATION   4:      0.000008073807
     CP-SCF ITERATION   5:      0.000000086718
done
Reading CP-SCF coefficients                    ... done
Doing the polarizability tensor   ... done
Cleaning up                                    ... done

-------------------------
THE POLARIZABILITY TENSOR
-------------------------

The raw cartesian tensor (atomic units):
   30.83076     -0.00000      0.00000  
   -0.00000     30.83094      0.00022  
    0.00000      0.00022     28.22508  
diagonalized tensor: 
   28.22508     30.83076     30.83094  

   -0.00000     -1.00000      0.00006  
   -0.00009     -0.00006     -1.00000  
    1.00000     -0.00000     -0.00009  

Isotropic polarizability :  29.96226


Timings for individual modules:

Sum of individual times         ...     4786.593 sec (=  79.777 min)
GTO integral calculation        ...        9.995 sec (=   0.167 min)   0.2 %
SCF iterations                  ...     2778.279 sec (=  46.305 min)  58.0 %
Solution of CP-SCF eqns.        ...     1998.319 sec (=  33.305 min)  41.7 %
                             ****ORCA TERMINATED NORMALLY****
TOTAL RUN TIME: 0 days 1 hours 19 minutes 47 seconds 741 msec
