
                                 *****************
                                 * O   R   C   A *
                                 *****************

           --- An Ab Initio, DFT and Semiempirical electronic structure package ---

                  #######################################################
                  #                        -***-                        #
                  #          Department of theory and spectroscopy      #
                  #               Directorship: Frank Neese             #
                  #        Max Planck Institute fuer Kohlenforschung    #
                  #                Kaiser Wilhelm Platz 1               #
                  #                 D-45470 Muelheim/Ruhr               #
                  #                      Germany                        #
                  #                                                     #
                  #                  All rights reserved                #
                  #                        -***-                        #
                  #######################################################


                         Program Version 4.1.2  - RELEASE  -


 With contributions from (in alphabetic order):
   Daniel Aravena         : Magnetic Properties
   Michael Atanasov       : Ab Initio Ligand Field Theory
   Alexander A. Auer      : GIAO ZORA
   Ute Becker             : Parallelization
   Giovanni Bistoni       : ED, Open-shell LED
   Martin Brehm           : Molecular dynamics
   Dmytro Bykov           : SCF Hessian
   Vijay G. Chilkuri      : MRCI spin determinant printing
   Dipayan Datta          : RHF DLPNO-CCSD density
   Achintya Kumar Dutta   : EOM-CC, STEOM-CC
   Dmitry Ganyushin       : Spin-Orbit,Spin-Spin,Magnetic field MRCI
   Miquel Garcia          : C-PCM Hessian
   Yang Guo               : DLPNO-NEVPT2, CIM, IAO-localization
   Andreas Hansen         : Spin unrestricted coupled pair/coupled cluster methods
   Benjamin Helmich-Paris : CASSCF linear response (MC-RPA)
   Lee Huntington         : MR-EOM, pCC
   Robert Izsak           : Overlap fitted RIJCOSX, COSX-SCS-MP3, EOM
   Christian Kollmar      : KDIIS, OOCD, Brueckner-CCSD(T), CCSD density
   Simone Kossmann        : Meta GGA functionals, TD-DFT gradient, OOMP2, MP2 Hessian
   Martin Krupicka        : AUTO-CI
   Lucas Lang             : DCDCAS
   Dagmar Lenk            : GEPOL surface, SMD
   Dimitrios Liakos       : Extrapolation schemes; parallel MDCI
   Dimitrios Manganas     : ROCIS; embedding schemes
   Dimitrios Pantazis     : SARC Basis sets
   Taras Petrenko         : DFT Hessian,TD-DFT gradient, ASA, ECA, R-Raman, ABS, FL, XAS/XES, NRVS
   Peter Pinski           : DLPNO-MP2, DLPNO-MP2 Gradient
   Christoph Reimann      : Effective Core Potentials
   Marius Retegan         : Local ZFS, SOC
   Christoph Riplinger    : Optimizer, TS searches, QM/MM, DLPNO-CCSD(T), (RO)-DLPNO pert. Triples
   Tobias Risthaus        : Range-separated hybrids, TD-DFT gradient, RPA, STAB
   Michael Roemelt        : Restricted open shell CIS
   Masaaki Saitow         : Open-shell DLPNO
   Barbara Sandhoefer     : DKH picture change effects
   Avijit Sen             : IP-ROCIS
   Kantharuban Sivalingam : CASSCF convergence, NEVPT2, FIC-MRCI
   Bernardo de Souza      : ESD, SOC TD-DFT
   Georgi Stoychev        : AutoAux, RI-MP2 NMR
   Willem Van den Heuvel  : Paramagnetic NMR
   Boris Wezisla          : Elementary symmetry handling
   Frank Wennmohs         : Technical directorship


 We gratefully acknowledge several colleagues who have allowed us to
 interface, adapt or use parts of their codes:
   Stefan Grimme, W. Hujo, H. Kruse,             : VdW corrections, initial TS optimization,
                  C. Bannwarth                     DFT functionals, gCP, sTDA/sTD-DF
   Ed Valeev                                     : LibInt (2-el integral package), F12 methods
   Garnet Chan, S. Sharma, J. Yang, R. Olivares  : DMRG
   Ulf Ekstrom                                   : XCFun DFT Library
   Mihaly Kallay                                 : mrcc  (arbitrary order and MRCC methods)
   Andreas Klamt, Michael Diedenhofen            : otool_cosmo (COSMO solvation model)
   Jiri Pittner, Ondrej Demel                    : Mk-CCSD
   Frank Weinhold                                : gennbo (NPA and NBO analysis)
   Christopher J. Cramer and Donald G. Truhlar   : smd solvation model
   Lars Goerigk                                  : TD-DFT with DH, B97 family of functionals
   V. Asgeirsson, H. Jonsson                     : NEB implementation
   FAccTs GmbH                                   : IRC, NEB, NEB-TS, Multilevel


 Your calculation uses the libint2 library for the computation of 2-el integrals
 For citations please refer to: http://libint.valeyev.net

 This ORCA versions uses:
   CBLAS   interface :  Fast vector & matrix operations
   LAPACKE interface :  Fast linear algebra routines
   SCALAPACK package :  Parallel linear algebra routines


----- Orbital basis set information -----
Your calculation utilizes the basis: aug-pc-4
   H, C-F              : F. Jensen, J. Chem. Phys. 115, 9113 (2001).
                         F. Jensen, J. Chem. Phys. 116, 7372 (2002).
                         F. Jensen, J. Chem. Phys. 117, 9234 (2002).
   Si-Cl               : F. Jensen, T. Helgaker, J. Chem. Phys. 121, 3463 (2004).
   He-B, Ne-Mg, Al, Ar : F. Jensen, J. Phys. Chem. A 111, 11198 (2007).
   K, Ca, Ga-Kr        : F. Jensen, J. Chem. Phys. 136, 094110 (2012).
   Sc-Zn               : F. Jensen, J. Chem. Phys. 138, 014107 (2013).

================================================================================
                                        WARNINGS
                       Please study these warnings very carefully!
================================================================================


INFO   : the flag for use of LIBINT has been found!

================================================================================
                                       INPUT FILE
================================================================================
NAME = sih4_pbe.inp
|  1> !uks pbe nori aug-pc-4 grid7 nofinalgrid verytightscf
|  2> 
|  3> %maxcore 1500
|  4> 
|  5> %pal nprocs 1 end
|  6> 
|  7> %scf
|  8> 	maxiter 200
|  9> end
| 10> %elprop
| 11> 	dipole true
| 12> 	 polar 1
| 13> 	 maxiter 200
| 14> end
| 15> 
| 16> * xyz 0 1
| 17> Si 0.0000 0.0000 0.0000
| 18> H 0.8544 0.8544 0.8544
| 19> H -0.8544 -0.8544 0.8544
| 20> H -0.8544 0.8544 -0.8544
| 21> H 0.8544 -0.8544 -0.8544
| 22> *
| 23> 
| 24>                          ****END OF INPUT****
================================================================================

                       ****************************
                       * Single Point Calculation *
                       ****************************

---------------------------------
CARTESIAN COORDINATES (ANGSTROEM)
---------------------------------
  Si     0.000000    0.000000    0.000000
  H      0.854400    0.854400    0.854400
  H     -0.854400   -0.854400    0.854400
  H     -0.854400    0.854400   -0.854400
  H      0.854400   -0.854400   -0.854400

----------------------------
CARTESIAN COORDINATES (A.U.)
----------------------------
  NO LB      ZA    FRAG     MASS         X           Y           Z
   0 Si   14.0000    0    28.086    0.000000    0.000000    0.000000
   1 H     1.0000    0     1.008    1.614582    1.614582    1.614582
   2 H     1.0000    0     1.008   -1.614582   -1.614582    1.614582
   3 H     1.0000    0     1.008   -1.614582    1.614582   -1.614582
   4 H     1.0000    0     1.008    1.614582   -1.614582   -1.614582

--------------------------------
INTERNAL COORDINATES (ANGSTROEM)
--------------------------------
 Si     0   0   0     0.000000000000     0.00000000     0.00000000
 H      1   0   0     1.479864209987     0.00000000     0.00000000
 H      1   2   0     1.479864209987   109.47122063     0.00000000
 H      1   2   3     1.479864209987   109.47122063   120.00000000
 H      1   2   3     1.479864209987   109.47122063   240.00000000

---------------------------
INTERNAL COORDINATES (A.U.)
---------------------------
 Si     0   0   0     0.000000000000     0.00000000     0.00000000
 H      1   0   0     2.796538072267     0.00000000     0.00000000
 H      1   2   0     2.796538072267   109.47122063     0.00000000
 H      1   2   3     2.796538072267   109.47122063   120.00000000
 H      1   2   3     2.796538072267   109.47122063   240.00000000

---------------------
BASIS SET INFORMATION
---------------------
There are 2 groups of distinct atoms

 Group   1 Type Si  : 44s27p7d4f3g2h contracted to 8s7p7d4f3g2h pattern {15121211111/111111111/1111111/1111/111/11}
 Group   2 Type H   : 12s7p4d3f2g contracted to 8s7p4d3f2g pattern {51111111/1111111/1111/111/11}

Atom   0Si   basis set group =>   1
Atom   1H    basis set group =>   2
Atom   2H    basis set group =>   2
Atom   3H    basis set group =>   2
Atom   4H    basis set group =>   2
------------------------------------------------------------------------------
                           ORCA GTO INTEGRAL CALCULATION
------------------------------------------------------------------------------

                         BASIS SET STATISTICS AND STARTUP INFO

 # of primitive gaussian shells          ...  199
 # of primitive gaussian functions       ...  605
 # of contracted shells                  ...  127
 # of contracted basis functions         ...  493
 Highest angular momentum                ...    5
 Maximum contraction depth               ...   15
 Integral package used                   ... LIBINT
 Integral threshhold            Thresh   ...  1.000e-12
 Primitive cut-off              TCut     ...  1.000e-14


------------------------------ INTEGRAL EVALUATION ----------------------------


 * One electron integrals 
 Pre-screening matrix                    ... done
 Shell pair data                         ... done (   0.003 sec)

-------------------------------------------------------------------------------
                                 ORCA SCF
-------------------------------------------------------------------------------

------------
SCF SETTINGS
------------
Hamiltonian:
 Density Functional     Method          .... DFT(GTOs)
 Exchange Functional    Exchange        .... PBE
   PBE kappa parameter   XKappa         ....  0.804000
   PBE mue parameter    XMuePBE         ....  0.219520
 Correlation Functional Correlation     .... PBE
   PBE beta parameter  CBetaPBE         ....  0.066725
 LDA part of GGA corr.  LDAOpt          .... PW91-LDA
 Gradients option       PostSCFGGA      .... off
   Density functional embedding theory  .... OFF
   NL short-range parameter             ....  6.400000


General Settings:
 Integral files         IntName         .... sih4_pbe
 Hartree-Fock type      HFTyp           .... UHF
 Total Charge           Charge          ....    0
 Multiplicity           Mult            ....    1
 Number of Electrons    NEL             ....   18
 Basis Dimension        Dim             ....  493
 Nuclear Repulsion      ENuc            ....     21.3386097640 Eh

Convergence Acceleration:
 DIIS                   CNVDIIS         .... on
   Start iteration      DIISMaxIt       ....    12
   Startup error        DIISStart       ....  0.200000
   # of expansion vecs  DIISMaxEq       ....     5
   Bias factor          DIISBfac        ....   1.050
   Max. coefficient     DIISMaxC        ....  10.000
 Newton-Raphson         CNVNR           .... off
 SOSCF                  CNVSOSCF        .... off
 Level Shifting         CNVShift        .... on
   Level shift para.    LevelShift      ....    0.2500
   Turn off err/grad.   ShiftErr        ....    0.0010
 Zerner damping         CNVZerner       .... off
 Static damping         CNVDamp         .... on
   Fraction old density DampFac         ....    0.7000
   Max. Damping (<1)    DampMax         ....    0.9800
   Min. Damping (>=0)   DampMin         ....    0.0000
   Turn off err/grad.   DampErr         ....    0.1000
 Fernandez-Rico         CNVRico         .... off

SCF Procedure:
 Maximum # iterations   MaxIter         ....   200
 SCF integral mode      SCFMode         .... Direct
   Integral package                     .... LIBINT
 Reset frequency        DirectResetFreq ....    20
 Integral Threshold     Thresh          ....  1.000e-12 Eh
 Primitive CutOff       TCut            ....  1.000e-14 Eh

Convergence Tolerance:
 Convergence Check Mode ConvCheckMode   .... Total+1el-Energy
 Convergence forced     ConvForced      .... 0
 Energy Change          TolE            ....  1.000e-09 Eh
 1-El. energy change                    ....  1.000e-06 Eh
 DIIS Error             TolErr          ....  1.000e-08


Diagonalization of the overlap matrix:
Smallest eigenvalue                        ... 1.346e-06
Time for diagonalization                   ...    0.052 sec
Threshold for overlap eigenvalues          ... 1.000e-08
Number of eigenvalues below threshold      ... 0
Time for construction of square roots      ...    0.036 sec
Total time needed                          ...    0.090 sec

-------------------
DFT GRID GENERATION
-------------------

General Integration Accuracy     IntAcc      ...  5.670
Radial Grid Type                 RadialGrid  ... Gauss-Chebyshev
Angular Grid (max. acc.)         AngularGrid ... Lebedev-770
Angular grid pruning method      GridPruning ... 3 (G Style)
Weight generation scheme         WeightScheme... Becke
Basis function cutoff            BFCut       ...    1.0000e-12
Integration weight cutoff        WCut        ...    1.0000e-14
Grids for H and He will be reduced by one unit

# of grid points (after initial pruning)     ...  98356 (   0.0 sec)
# of grid points (after weights+screening)   ...  96288 (   0.1 sec)
nearest neighbour list constructed           ...    0.0 sec
Grid point re-assignment to atoms done       ...    0.0 sec
Grid point division into batches done        ...    1.8 sec
Reduced shell lists constructed in    3.3 sec

Total number of grid points                  ...    96288
Total number of batches                      ...     1507
Average number of points per batch           ...       63
Average number of grid points per atom       ...    19258
Average number of shells per batch           ...    91.26 (71.86%)
Average number of basis functions per batch  ...   359.71 (72.96%)
Average number of large shells per batch     ...    80.99 (88.75%)
Average number of large basis fcns per batch ...   321.36 (89.34%)
Maximum spatial batch extension              ...  20.23, 20.23, 20.23 au
Average spatial batch extension              ...   2.13,  2.09,  2.12 au

Time for grid setup =    3.384 sec

------------------------------
INITIAL GUESS: MODEL POTENTIAL
------------------------------
Loading Hartree-Fock densities                     ... done
Calculating cut-offs                               ... done
Setting up the integral package                    ... done
Initializing the effective Hamiltonian             ... done
Starting the Coulomb interaction                   ... done (   0.2 sec)
Reading the grid                                   ... done
Mapping shells                                     ... done
Starting the XC term evaluation                    ... done (  10.0 sec)
  promolecular density results
     # of electrons  =     17.998041496
     EX              =    -21.369000532
     EC              =     -0.617746643
     EX+EC           =    -21.986747175
Transforming the Hamiltonian                       ... done (   0.0 sec)
Diagonalizing the Hamiltonian                      ... done (   0.1 sec)
Back transforming the eigenvectors                 ... done (   0.0 sec)
Now organizing SCF variables                       ... done
                      ------------------
                      INITIAL GUESS DONE (  13.8 sec)
                      ------------------
--------------
SCF ITERATIONS
--------------
ITER       Energy         Delta-E        Max-DP      RMS-DP      [F,P]     Damp
               ***  Starting incremental Fock matrix formation  ***
  0   -291.7212818934   0.000000000000 0.01969923  0.00013572  0.0511485 0.7000
  1   -291.7256869021  -0.004405008707 0.01801968  0.00010433  0.0366075 0.7000
                               ***Turning on DIIS***
  2   -291.7285196040  -0.002832701929 0.03982246  0.00020630  0.0237386 0.0000
  3   -291.7332744688  -0.004754864799 0.00989489  0.00008111  0.0078352 0.0000
  4   -291.7336752843  -0.000400815473 0.00150659  0.00001252  0.0025900 0.0000
  5   -291.7337016723  -0.000026388042 0.00165716  0.00000649  0.0005917 0.0000
  6   -291.7337044335  -0.000002761206 0.00057024  0.00000289  0.0002353 0.0000
  7   -291.7337045188  -0.000000085311 0.00006240  0.00000045  0.0000629 0.0000
  8   -291.7337045240  -0.000000005136 0.00010402  0.00000036  0.0000021 0.0000
  9   -291.7337045240  -0.000000000032 0.00005582  0.00000027  0.0000008 0.0000
 10   -291.7337045240   0.000000000016 0.00011429  0.00000040  0.0000001 0.0000
                 **** Energy Check signals convergence ****

               *****************************************************
               *                     SUCCESS                       *
               *           SCF CONVERGED AFTER  11 CYCLES          *
               *****************************************************


----------------
TOTAL SCF ENERGY
----------------

Total Energy       :         -291.73370452 Eh           -7938.47768 eV

Components:
Nuclear Repulsion  :           21.33860976 Eh             580.65309 eV
Electronic Energy  :         -313.07231429 Eh           -8519.13078 eV
One Electron Energy:         -445.97213744 Eh          -12135.51882 eV
Two Electron Energy:          132.89982315 Eh            3616.38804 eV

Virial components:
Potential Energy   :         -583.19726986 Eh          -15869.60451 eV
Kinetic Energy     :          291.46356533 Eh            7931.12682 eV
Virial Ratio       :            2.00092684


DFT components:
N(Alpha)           :        8.999999978546 electrons
N(Beta)            :        8.999999978546 electrons
N(Total)           :       17.999999957092 electrons
E(X)               :      -21.589078766037 Eh       
E(C)               :       -0.614931548210 Eh       
E(XC)              :      -22.204010314248 Eh       
DFET-embed. en.    :        0.000000000000 Eh       

---------------
SCF CONVERGENCE
---------------

  Last Energy change         ...   -4.2121e-11  Tolerance :   1.0000e-09
  Last MAX-Density change    ...    3.4223e-05  Tolerance :   1.0000e-08
  Last RMS-Density change    ...    1.1097e-07  Tolerance :   1.0000e-09
  Last DIIS Error            ...    1.6659e-09  Tolerance :   1.0000e-08

             **** THE GBW FILE WAS UPDATED (sih4_pbe.gbw) ****
             **** DENSITY FILE WAS UPDATED (sih4_pbe.scfp.tmp) ****
             **** ENERGY FILE WAS UPDATED (sih4_pbe.en.tmp) ****
----------------------
UHF SPIN CONTAMINATION
----------------------

Warning: in a DFT calculation there is little theoretical justification to 
         calculate <S**2> as in Hartree-Fock theory. We will do it anyways
         but you should keep in mind that the values have only limited relevance

Expectation value of <S**2>     :     0.000000
Ideal value S*(S+1) for S=0.0   :     0.000000
Deviation                       :     0.000000

----------------
ORBITAL ENERGIES
----------------
                 SPIN UP ORBITALS
  NO   OCC          E(Eh)            E(eV) 
   0   1.0000     -65.375446     -1778.9563 
   1   1.0000      -5.044483      -137.2674 
   2   1.0000      -3.453310       -93.9693 
   3   1.0000      -3.453310       -93.9693 
   4   1.0000      -3.453310       -93.9693 
   5   1.0000      -0.494794       -13.4640 
   6   1.0000      -0.313207        -8.5228 
   7   1.0000      -0.313207        -8.5228 
   8   1.0000      -0.313207        -8.5228 
   9   0.0000      -0.017720        -0.4822 
  10   0.0000      -0.002375        -0.0646 
  11   0.0000      -0.002375        -0.0646 
  12   0.0000      -0.002375        -0.0646 
  13   0.0000       0.013890         0.3780 
  14   0.0000       0.013890         0.3780 
  15   0.0000       0.013890         0.3780 
  16   0.0000       0.034223         0.9312 
  17   0.0000       0.038024         1.0347 
  18   0.0000       0.038024         1.0347 
  19   0.0000       0.038024         1.0347 
  20   0.0000       0.038564         1.0494 
  21   0.0000       0.038564         1.0494 
  22   0.0000       0.062636         1.7044 
  23   0.0000       0.062636         1.7044 
  24   0.0000       0.062636         1.7044 
  25   0.0000       0.089208         2.4275 
  26   0.0000       0.100310         2.7296 
  27   0.0000       0.100310         2.7296 
  28   0.0000       0.100311         2.7296 
  29   0.0000       0.103001         2.8028 
  30   0.0000       0.103001         2.8028 
  31   0.0000       0.112754         3.0682 
  32   0.0000       0.112754         3.0682 
  33   0.0000       0.112754         3.0682 
  34   0.0000       0.125475         3.4144 
  35   0.0000       0.125475         3.4144 
  36   0.0000       0.125475         3.4144 
  37   0.0000       0.127561         3.4711 
  38   0.0000       0.155716         4.2372 
  39   0.0000       0.155716         4.2372 
  40   0.0000       0.155716         4.2373 
  41   0.0000       0.168684         4.5901 
  42   0.0000       0.170292         4.6339 
  43   0.0000       0.170292         4.6339 
  44   0.0000       0.170293         4.6339 
  45   0.0000       0.176195         4.7945 
  46   0.0000       0.180032         4.8989 
  47   0.0000       0.180032         4.8989 
  48   0.0000       0.180034         4.8990 
  49   0.0000       0.203139         5.5277 
  50   0.0000       0.203139         5.5277 
  51   0.0000       0.219599         5.9756 
  52   0.0000       0.219600         5.9756 
  53   0.0000       0.219602         5.9757 
  54   0.0000       0.234758         6.3881 
  55   0.0000       0.234758         6.3881 
  56   0.0000       0.245611         6.6834 
  57   0.0000       0.245611         6.6834 
  58   0.0000       0.245611         6.6834 
  59   0.0000       0.258020         7.0211 
  60   0.0000       0.258021         7.0211 
  61   0.0000       0.258021         7.0211 
  62   0.0000       0.282492         7.6870 
  63   0.0000       0.282493         7.6870 
  64   0.0000       0.282496         7.6871 
  65   0.0000       0.286702         7.8015 
  66   0.0000       0.286702         7.8016 
  67   0.0000       0.286702         7.8016 
  68   0.0000       0.291278         7.9261 
  69   0.0000       0.293704         7.9921 
  70   0.0000       0.293704         7.9921 
  71   0.0000       0.316696         8.6177 
  72   0.0000       0.316697         8.6178 
  73   0.0000       0.316698         8.6178 
  74   0.0000       0.329563         8.9679 
  75   0.0000       0.335980         9.1425 
  76   0.0000       0.335981         9.1425 
  77   0.0000       0.335982         9.1425 
  78   0.0000       0.344412         9.3719 
  79   0.0000       0.344412         9.3719 
  80   0.0000       0.344413         9.3720 
  81   0.0000       0.362225         9.8567 
  82   0.0000       0.377947        10.2845 
  83   0.0000       0.377948        10.2845 
  84   0.0000       0.377951        10.2846 
  85   0.0000       0.385476        10.4893 
  86   0.0000       0.385477        10.4894 
  87   0.0000       0.399362        10.8672 
  88   0.0000       0.399363        10.8672 
  89   0.0000       0.399366        10.8673 
  90   0.0000       0.438063        11.9203 
  91   0.0000       0.438063        11.9203 
  92   0.0000       0.438063        11.9203 
  93   0.0000       0.443899        12.0791 
  94   0.0000       0.447135        12.1672 
  95   0.0000       0.447135        12.1672 
  96   0.0000       0.469635        12.7794 
  97   0.0000       0.469636        12.7794 
  98   0.0000       0.469637        12.7795 
  99   0.0000       0.479037        13.0353 
 100   0.0000       0.491042        13.3619 
 101   0.0000       0.491043        13.3619 
 102   0.0000       0.491043        13.3620 
 103   0.0000       0.503137        13.6910 
 104   0.0000       0.503138        13.6911 
 105   0.0000       0.503138        13.6911 
 106   0.0000       0.503535        13.7019 
 107   0.0000       0.503535        13.7019 
 108   0.0000       0.518673        14.1138 
 109   0.0000       0.518673        14.1138 
 110   0.0000       0.518674        14.1138 
 111   0.0000       0.539261        14.6740 
 112   0.0000       0.539262        14.6741 
 113   0.0000       0.539265        14.6741 
 114   0.0000       0.549940        14.9646 
 115   0.0000       0.549941        14.9646 
 116   0.0000       0.549941        14.9647 
 117   0.0000       0.571026        15.5384 
 118   0.0000       0.571027        15.5384 
 119   0.0000       0.571030        15.5385 
 120   0.0000       0.573748        15.6125 
 121   0.0000       0.573748        15.6125 
 122   0.0000       0.577471        15.7138 
 123   0.0000       0.577471        15.7138 
 124   0.0000       0.577471        15.7138 
 125   0.0000       0.596645        16.2355 
 126   0.0000       0.633352        17.2344 
 127   0.0000       0.633352        17.2344 
 128   0.0000       0.633352        17.2344 
 129   0.0000       0.656121        17.8540 
 130   0.0000       0.659429        17.9440 
 131   0.0000       0.659429        17.9440 
 132   0.0000       0.659429        17.9440 
 133   0.0000       0.670006        18.2318 
 134   0.0000       0.670006        18.2318 
 135   0.0000       0.684429        18.6243 
 136   0.0000       0.684429        18.6243 
 137   0.0000       0.684430        18.6243 
 138   0.0000       0.691852        18.8262 
 139   0.0000       0.692160        18.8346 
 140   0.0000       0.692163        18.8347 
 141   0.0000       0.692164        18.8347 
 142   0.0000       0.717801        19.5324 
 143   0.0000       0.717801        19.5324 
 144   0.0000       0.717801        19.5324 
 145   0.0000       0.723184        19.6788 
 146   0.0000       0.755937        20.5701 
 147   0.0000       0.755937        20.5701 
 148   0.0000       0.776773        21.1371 
 149   0.0000       0.776773        21.1371 
 150   0.0000       0.776774        21.1371 
 151   0.0000       0.809199        22.0194 
 152   0.0000       0.809200        22.0194 
 153   0.0000       0.809200        22.0195 
 154   0.0000       0.812118        22.0989 
 155   0.0000       0.812118        22.0989 
 156   0.0000       0.812118        22.0989 
 157   0.0000       0.823878        22.4189 
 158   0.0000       0.831403        22.6236 
 159   0.0000       0.831403        22.6236 
 160   0.0000       0.831404        22.6237 
 161   0.0000       0.840859        22.8809 
 162   0.0000       0.840859        22.8809 
 163   0.0000       0.847165        23.0525 
 164   0.0000       0.847165        23.0525 
 165   0.0000       0.847166        23.0525 
 166   0.0000       0.880790        23.9675 
 167   0.0000       0.880791        23.9675 
 168   0.0000       0.880792        23.9676 
 169   0.0000       0.915091        24.9009 
 170   0.0000       0.915092        24.9009 
 171   0.0000       0.918952        25.0059 
 172   0.0000       0.918952        25.0060 
 173   0.0000       0.918955        25.0060 
 174   0.0000       0.921347        25.0711 
 175   0.0000       0.921348        25.0711 
 176   0.0000       0.921348        25.0712 
 177   0.0000       0.945469        25.7275 
 178   0.0000       0.945470        25.7276 
 179   0.0000       0.945473        25.7276 
 180   0.0000       1.001388        27.2491 
 181   0.0000       1.032459        28.0946 
 182   0.0000       1.032459        28.0946 
 183   0.0000       1.071848        29.1665 
 184   0.0000       1.071849        29.1665 
 185   0.0000       1.071851        29.1666 
 186   0.0000       1.077000        29.3067 
 187   0.0000       1.133105        30.8333 
 188   0.0000       1.133105        30.8334 
 189   0.0000       1.133105        30.8334 
 190   0.0000       1.183512        32.2050 
 191   0.0000       1.183514        32.2050 
 192   0.0000       1.183515        32.2051 
 193   0.0000       1.205933        32.8151 
 194   0.0000       1.205933        32.8151 
 195   0.0000       1.259201        34.2646 
 196   0.0000       1.259201        34.2646 
 197   0.0000       1.259201        34.2646 
 198   0.0000       1.316839        35.8330 
 199   0.0000       1.330672        36.2094 
 200   0.0000       1.330674        36.2095 
 201   0.0000       1.330675        36.2095 
 202   0.0000       1.385170        37.6924 
 203   0.0000       1.385170        37.6924 
 204   0.0000       1.385171        37.6924 
 205   0.0000       1.472502        40.0688 
 206   0.0000       1.503600        40.9150 
 207   0.0000       1.503600        40.9150 
 208   0.0000       1.503600        40.9150 
 209   0.0000       1.569350        42.7042 
 210   0.0000       1.569351        42.7042 
 211   0.0000       1.569352        42.7042 
 212   0.0000       1.576786        42.9065 
 213   0.0000       1.622622        44.1538 
 214   0.0000       1.622623        44.1538 
 215   0.0000       1.622625        44.1539 
 216   0.0000       1.627432        44.2847 
 217   0.0000       1.627432        44.2847 
 218   0.0000       1.655536        45.0494 
 219   0.0000       1.655537        45.0494 
 220   0.0000       1.655537        45.0494 
 221   0.0000       1.672882        45.5214 
 222   0.0000       1.672882        45.5214 
 223   0.0000       1.672882        45.5214 
 224   0.0000       1.835694        49.9518 
 225   0.0000       1.835694        49.9518 
 226   0.0000       1.844399        50.1886 
 227   0.0000       1.844399        50.1887 
 228   0.0000       1.844401        50.1887 
 229   0.0000       2.081189        56.6320 
 230   0.0000       2.203071        59.9486 
 231   0.0000       2.234241        60.7968 
 232   0.0000       2.234242        60.7968 
 233   0.0000       2.234242        60.7968 
 234   0.0000       2.256590        61.4049 
 235   0.0000       2.256590        61.4049 
 236   0.0000       2.414432        65.7000 
 237   0.0000       2.414432        65.7000 
 238   0.0000       2.414432        65.7000 
 239   0.0000       2.423903        65.9577 
 240   0.0000       2.423903        65.9577 
 241   0.0000       2.423903        65.9578 
 242   0.0000       2.482536        67.5532 
 243   0.0000       2.482536        67.5532 
 244   0.0000       2.547388        69.3180 
 245   0.0000       2.547389        69.3180 
 246   0.0000       2.547390        69.3180 
 247   0.0000       2.664233        72.4975 
 248   0.0000       2.664234        72.4975 
 249   0.0000       2.664234        72.4975 
 250   0.0000       2.755362        74.9772 
 251   0.0000       2.755362        74.9772 
 252   0.0000       2.755362        74.9772 
 253   0.0000       2.779615        75.6372 
 254   0.0000       3.070998        83.5661 
 255   0.0000       3.070998        83.5661 
 256   0.0000       3.070998        83.5661 
 257   0.0000       3.126888        85.0870 
 258   0.0000       3.126888        85.0870 
 259   0.0000       3.126888        85.0870 
 260   0.0000       3.235416        88.0402 
 261   0.0000       3.235416        88.0402 
 262   0.0000       3.303889        89.9034 
 263   0.0000       3.321642        90.3865 
 264   0.0000       3.321642        90.3865 
 265   0.0000       3.324606        90.4671 
 266   0.0000       3.324607        90.4671 
 267   0.0000       3.324607        90.4671 
 268   0.0000       3.411584        92.8339 
 269   0.0000       3.411584        92.8339 
 270   0.0000       3.411585        92.8340 
 271   0.0000       3.460761        94.1721 
 272   0.0000       3.460761        94.1721 
 273   0.0000       3.460761        94.1721 
 274   0.0000       3.506929        95.4284 
 275   0.0000       3.526469        95.9601 
 276   0.0000       3.526469        95.9601 
 277   0.0000       3.526470        95.9601 
 278   0.0000       3.570357        97.1543 
 279   0.0000       3.579455        97.4019 
 280   0.0000       3.579456        97.4019 
 281   0.0000       3.579456        97.4019 
 282   0.0000       3.681353       100.1747 
 283   0.0000       3.681354       100.1747 
 284   0.0000       3.681354       100.1747 
 285   0.0000       3.738286       101.7239 
 286   0.0000       3.761887       102.3662 
 287   0.0000       3.761887       102.3662 
 288   0.0000       3.886610       105.7600 
 289   0.0000       3.886610       105.7600 
 290   0.0000       3.886610       105.7600 
 291   0.0000       3.913276       106.4857 
 292   0.0000       3.913276       106.4857 
 293   0.0000       3.913277       106.4857 
 294   0.0000       3.936671       107.1223 
 295   0.0000       3.936671       107.1223 
 296   0.0000       3.936671       107.1223 
 297   0.0000       4.175725       113.6273 
 298   0.0000       4.175725       113.6273 
 299   0.0000       4.175725       113.6273 
 300   0.0000       4.417655       120.2105 
 301   0.0000       4.417655       120.2105 
 302   0.0000       4.417655       120.2105 
 303   0.0000       4.508724       122.6886 
 304   0.0000       4.681285       127.3842 
 305   0.0000       4.681285       127.3842 
 306   0.0000       4.825402       131.3059 
 307   0.0000       4.925656       134.0339 
 308   0.0000       4.925656       134.0339 
 309   0.0000       4.925656       134.0339 
 310   0.0000       4.968891       135.2104 
 311   0.0000       4.968891       135.2104 
 312   0.0000       4.968892       135.2104 
 313   0.0000       4.994084       135.8959 
 314   0.0000       4.994084       135.8959 
 315   0.0000       5.172737       140.7573 
 316   0.0000       5.172737       140.7573 
 317   0.0000       5.172738       140.7573 
 318   0.0000       5.276459       143.5798 
 319   0.0000       5.302074       144.2768 
 320   0.0000       5.302074       144.2768 
 321   0.0000       5.302074       144.2768 
 322   0.0000       5.445015       148.1664 
 323   0.0000       5.445015       148.1664 
 324   0.0000       5.718438       155.6066 
 325   0.0000       5.718438       155.6066 
 326   0.0000       5.718438       155.6066 
 327   0.0000       5.829383       158.6256 
 328   0.0000       5.829383       158.6256 
 329   0.0000       5.829383       158.6256 
 330   0.0000       6.303019       171.5139 
 331   0.0000       6.303019       171.5139 
 332   0.0000       6.303020       171.5139 
 333   0.0000       6.509587       177.1349 
 334   0.0000       6.509587       177.1349 
 335   0.0000       6.569829       178.7741 
 336   0.0000       6.569829       178.7741 
 337   0.0000       6.569829       178.7741 
 338   0.0000       7.021200       191.0566 
 339   0.0000       7.021200       191.0566 
 340   0.0000       7.042938       191.6481 
 341   0.0000       7.079955       192.6554 
 342   0.0000       7.079955       192.6554 
 343   0.0000       7.079955       192.6554 
 344   0.0000       7.451806       202.7740 
 345   0.0000       7.451807       202.7740 
 346   0.0000       7.451807       202.7740 
 347   0.0000       8.443467       229.7584 
 348   0.0000       8.443467       229.7584 
 349   0.0000       8.443467       229.7584 
 350   0.0000       8.588737       233.7114 
 351   0.0000       8.588737       233.7114 
 352   0.0000       8.678426       236.1520 
 353   0.0000       8.678426       236.1520 
 354   0.0000       8.678426       236.1520 
 355   0.0000       8.877959       241.5815 
 356   0.0000       8.898568       242.1423 
 357   0.0000       8.898568       242.1423 
 358   0.0000       8.898568       242.1423 
 359   0.0000       8.904444       242.3022 
 360   0.0000       8.904444       242.3022 
 361   0.0000       8.904444       242.3022 
 362   0.0000       8.943677       243.3698 
 363   0.0000       8.943677       243.3698 
 364   0.0000       9.014304       245.2917 
 365   0.0000       9.014304       245.2917 
 366   0.0000       9.014304       245.2917 
 367   0.0000       9.036691       245.9009 
 368   0.0000       9.036691       245.9009 
 369   0.0000       9.036691       245.9009 
 370   0.0000       9.361857       254.7491 
 371   0.0000       9.361857       254.7491 
 372   0.0000       9.361857       254.7491 
 373   0.0000       9.422634       256.4029 
 374   0.0000       9.422635       256.4029 
 375   0.0000       9.422635       256.4029 
 376   0.0000       9.437934       256.8193 
 377   0.0000       9.437934       256.8193 
 378   0.0000       9.440020       256.8760 
 379   0.0000      10.136639       275.8320 
 380   0.0000      10.136639       275.8320 
 381   0.0000      10.136639       275.8320 
 382   0.0000      10.144253       276.0391 
 383   0.0000      10.144253       276.0391 
 384   0.0000      10.144253       276.0391 
 385   0.0000      10.503671       285.8194 
 386   0.0000      10.731125       292.0088 
 387   0.0000      11.443296       311.3879 
 388   0.0000      11.443296       311.3879 
 389   0.0000      11.443297       311.3879 
 390   0.0000      12.239462       333.0527 
 391   0.0000      12.329053       335.4906 
 392   0.0000      12.329053       335.4906 
 393   0.0000      12.329053       335.4906 
 394   0.0000      12.391807       337.1982 
 395   0.0000      12.391807       337.1982 
 396   0.0000      12.391807       337.1982 
 397   0.0000      12.465332       339.1989 
 398   0.0000      12.581050       342.3478 
 399   0.0000      12.581050       342.3478 
 400   0.0000      12.581050       342.3478 
 401   0.0000      12.761220       347.2504 
 402   0.0000      12.761220       347.2504 
 403   0.0000      12.761220       347.2504 
 404   0.0000      12.827827       349.0629 
 405   0.0000      12.827827       349.0629 
 406   0.0000      12.936812       352.0286 
 407   0.0000      12.936812       352.0286 
 408   0.0000      12.936812       352.0286 
 409   0.0000      13.151797       357.8786 
 410   0.0000      13.151797       357.8786 
 411   0.0000      13.151797       357.8786 
 412   0.0000      13.201276       359.2250 
 413   0.0000      13.201276       359.2250 
 414   0.0000      13.310714       362.2029 
 415   0.0000      13.310714       362.2029 
 416   0.0000      13.310714       362.2029 
 417   0.0000      13.378356       364.0436 
 418   0.0000      15.452313       420.4788 
 419   0.0000      15.452313       420.4788 
 420   0.0000      16.096998       438.0216 
 421   0.0000      16.096998       438.0216 
 422   0.0000      16.096998       438.0216 
 423   0.0000      16.608212       451.9324 
 424   0.0000      16.721549       455.0165 
 425   0.0000      16.744444       455.6395 
 426   0.0000      16.744444       455.6395 
 427   0.0000      16.744444       455.6395 
 428   0.0000      16.745606       455.6711 
 429   0.0000      16.745606       455.6711 
 430   0.0000      16.747700       455.7281 
 431   0.0000      16.747700       455.7281 
 432   0.0000      16.747700       455.7281 
 433   0.0000      16.775820       456.4933 
 434   0.0000      16.775820       456.4933 
 435   0.0000      16.775820       456.4933 
 436   0.0000      16.789931       456.8772 
 437   0.0000      16.789931       456.8772 
 438   0.0000      16.789931       456.8772 
 439   0.0000      16.819146       457.6722 
 440   0.0000      16.898112       459.8210 
 441   0.0000      16.898112       459.8210 
 442   0.0000      16.929744       460.6817 
 443   0.0000      16.929744       460.6817 
 444   0.0000      16.929744       460.6817 
 445   0.0000      17.188296       467.7173 
 446   0.0000      17.188296       467.7173 
 447   0.0000      17.188296       467.7173 
 448   0.0000      17.372980       472.7428 
 449   0.0000      17.372980       472.7428 
 450   0.0000      17.372980       472.7428 
 451   0.0000      17.440782       474.5878 
 452   0.0000      17.440782       474.5878 
 453   0.0000      17.440783       474.5878 
 454   0.0000      17.848736       485.6888 
 455   0.0000      17.848736       485.6888 
 456   0.0000      17.900514       487.0978 
 457   0.0000      17.900514       487.0978 
 458   0.0000      17.900514       487.0978 
 459   0.0000      23.312287       634.3596 
 460   0.0000      23.312287       634.3596 
 461   0.0000      23.312287       634.3596 
 462   0.0000      23.440497       637.8483 
 463   0.0000      23.440497       637.8483 
 464   0.0000      23.460917       638.4040 
 465   0.0000      23.460917       638.4040 
 466   0.0000      23.460917       638.4040 
 467   0.0000      23.544377       640.6751 
 468   0.0000      23.939878       651.4372 
 469   0.0000      23.939878       651.4372 
 470   0.0000      23.939878       651.4372 
 471   0.0000      25.986422       707.1265 
 472   0.0000      39.481133      1074.3363 
 473   0.0000      39.724287      1080.9528 
 474   0.0000      39.724287      1080.9528 
 475   0.0000      39.724287      1080.9528 
 476   0.0000      55.443225      1508.6869 
 477   0.0000      55.443225      1508.6869 
 478   0.0000      55.834594      1519.3365 
 479   0.0000      55.834594      1519.3365 
 480   0.0000      55.834594      1519.3365 
 481   0.0000      90.939799      2474.5977 
 482   0.0000      90.939799      2474.5977 
 483   0.0000      90.939799      2474.5977 
 484   0.0000      91.034827      2477.1836 
 485   0.0000      91.034827      2477.1836 
 486   0.0000      91.048031      2477.5429 
 487   0.0000      91.048031      2477.5429 
 488   0.0000      91.048031      2477.5429 
 489   0.0000      91.398138      2487.0698 
 490   0.0000      91.398138      2487.0698 
 491   0.0000      91.398138      2487.0698 
 492   0.0000      91.613919      2492.9415 

                 SPIN DOWN ORBITALS
  NO   OCC          E(Eh)            E(eV) 
   0   1.0000     -65.375446     -1778.9563 
   1   1.0000      -5.044483      -137.2674 
   2   1.0000      -3.453310       -93.9693 
   3   1.0000      -3.453310       -93.9693 
   4   1.0000      -3.453310       -93.9693 
   5   1.0000      -0.494794       -13.4640 
   6   1.0000      -0.313207        -8.5228 
   7   1.0000      -0.313207        -8.5228 
   8   1.0000      -0.313207        -8.5228 
   9   0.0000      -0.017720        -0.4822 
  10   0.0000      -0.002375        -0.0646 
  11   0.0000      -0.002375        -0.0646 
  12   0.0000      -0.002375        -0.0646 
  13   0.0000       0.013890         0.3780 
  14   0.0000       0.013890         0.3780 
  15   0.0000       0.013890         0.3780 
  16   0.0000       0.034223         0.9312 
  17   0.0000       0.038024         1.0347 
  18   0.0000       0.038024         1.0347 
  19   0.0000       0.038024         1.0347 
  20   0.0000       0.038564         1.0494 
  21   0.0000       0.038564         1.0494 
  22   0.0000       0.062636         1.7044 
  23   0.0000       0.062636         1.7044 
  24   0.0000       0.062636         1.7044 
  25   0.0000       0.089208         2.4275 
  26   0.0000       0.100310         2.7296 
  27   0.0000       0.100310         2.7296 
  28   0.0000       0.100311         2.7296 
  29   0.0000       0.103001         2.8028 
  30   0.0000       0.103001         2.8028 
  31   0.0000       0.112754         3.0682 
  32   0.0000       0.112754         3.0682 
  33   0.0000       0.112754         3.0682 
  34   0.0000       0.125475         3.4144 
  35   0.0000       0.125475         3.4144 
  36   0.0000       0.125475         3.4144 
  37   0.0000       0.127561         3.4711 
  38   0.0000       0.155716         4.2372 
  39   0.0000       0.155716         4.2372 
  40   0.0000       0.155716         4.2373 
  41   0.0000       0.168684         4.5901 
  42   0.0000       0.170292         4.6339 
  43   0.0000       0.170292         4.6339 
  44   0.0000       0.170293         4.6339 
  45   0.0000       0.176195         4.7945 
  46   0.0000       0.180032         4.8989 
  47   0.0000       0.180032         4.8989 
  48   0.0000       0.180034         4.8990 
  49   0.0000       0.203139         5.5277 
  50   0.0000       0.203139         5.5277 
  51   0.0000       0.219599         5.9756 
  52   0.0000       0.219600         5.9756 
  53   0.0000       0.219602         5.9757 
  54   0.0000       0.234758         6.3881 
  55   0.0000       0.234758         6.3881 
  56   0.0000       0.245611         6.6834 
  57   0.0000       0.245611         6.6834 
  58   0.0000       0.245611         6.6834 
  59   0.0000       0.258020         7.0211 
  60   0.0000       0.258021         7.0211 
  61   0.0000       0.258021         7.0211 
  62   0.0000       0.282492         7.6870 
  63   0.0000       0.282493         7.6870 
  64   0.0000       0.282496         7.6871 
  65   0.0000       0.286702         7.8015 
  66   0.0000       0.286702         7.8016 
  67   0.0000       0.286702         7.8016 
  68   0.0000       0.291278         7.9261 
  69   0.0000       0.293704         7.9921 
  70   0.0000       0.293704         7.9921 
  71   0.0000       0.316696         8.6177 
  72   0.0000       0.316697         8.6178 
  73   0.0000       0.316698         8.6178 
  74   0.0000       0.329563         8.9679 
  75   0.0000       0.335980         9.1425 
  76   0.0000       0.335981         9.1425 
  77   0.0000       0.335982         9.1425 
  78   0.0000       0.344412         9.3719 
  79   0.0000       0.344412         9.3719 
  80   0.0000       0.344413         9.3720 
  81   0.0000       0.362225         9.8567 
  82   0.0000       0.377947        10.2845 
  83   0.0000       0.377948        10.2845 
  84   0.0000       0.377951        10.2846 
  85   0.0000       0.385476        10.4893 
  86   0.0000       0.385477        10.4894 
  87   0.0000       0.399362        10.8672 
  88   0.0000       0.399363        10.8672 
  89   0.0000       0.399366        10.8673 
  90   0.0000       0.438063        11.9203 
  91   0.0000       0.438063        11.9203 
  92   0.0000       0.438063        11.9203 
  93   0.0000       0.443899        12.0791 
  94   0.0000       0.447135        12.1672 
  95   0.0000       0.447135        12.1672 
  96   0.0000       0.469635        12.7794 
  97   0.0000       0.469636        12.7794 
  98   0.0000       0.469637        12.7795 
  99   0.0000       0.479037        13.0353 
 100   0.0000       0.491042        13.3619 
 101   0.0000       0.491043        13.3619 
 102   0.0000       0.491043        13.3620 
 103   0.0000       0.503137        13.6910 
 104   0.0000       0.503138        13.6911 
 105   0.0000       0.503138        13.6911 
 106   0.0000       0.503535        13.7019 
 107   0.0000       0.503535        13.7019 
 108   0.0000       0.518673        14.1138 
 109   0.0000       0.518673        14.1138 
 110   0.0000       0.518674        14.1138 
 111   0.0000       0.539261        14.6740 
 112   0.0000       0.539262        14.6741 
 113   0.0000       0.539265        14.6741 
 114   0.0000       0.549940        14.9646 
 115   0.0000       0.549941        14.9646 
 116   0.0000       0.549941        14.9647 
 117   0.0000       0.571026        15.5384 
 118   0.0000       0.571027        15.5384 
 119   0.0000       0.571030        15.5385 
 120   0.0000       0.573748        15.6125 
 121   0.0000       0.573748        15.6125 
 122   0.0000       0.577471        15.7138 
 123   0.0000       0.577471        15.7138 
 124   0.0000       0.577471        15.7138 
 125   0.0000       0.596645        16.2355 
 126   0.0000       0.633352        17.2344 
 127   0.0000       0.633352        17.2344 
 128   0.0000       0.633352        17.2344 
 129   0.0000       0.656121        17.8540 
 130   0.0000       0.659429        17.9440 
 131   0.0000       0.659429        17.9440 
 132   0.0000       0.659429        17.9440 
 133   0.0000       0.670006        18.2318 
 134   0.0000       0.670006        18.2318 
 135   0.0000       0.684429        18.6243 
 136   0.0000       0.684429        18.6243 
 137   0.0000       0.684430        18.6243 
 138   0.0000       0.691852        18.8262 
 139   0.0000       0.692160        18.8346 
 140   0.0000       0.692163        18.8347 
 141   0.0000       0.692164        18.8347 
 142   0.0000       0.717801        19.5324 
 143   0.0000       0.717801        19.5324 
 144   0.0000       0.717801        19.5324 
 145   0.0000       0.723184        19.6788 
 146   0.0000       0.755937        20.5701 
 147   0.0000       0.755937        20.5701 
 148   0.0000       0.776773        21.1371 
 149   0.0000       0.776773        21.1371 
 150   0.0000       0.776774        21.1371 
 151   0.0000       0.809199        22.0194 
 152   0.0000       0.809200        22.0194 
 153   0.0000       0.809200        22.0195 
 154   0.0000       0.812118        22.0989 
 155   0.0000       0.812118        22.0989 
 156   0.0000       0.812118        22.0989 
 157   0.0000       0.823878        22.4189 
 158   0.0000       0.831403        22.6236 
 159   0.0000       0.831403        22.6236 
 160   0.0000       0.831404        22.6237 
 161   0.0000       0.840859        22.8809 
 162   0.0000       0.840859        22.8809 
 163   0.0000       0.847165        23.0525 
 164   0.0000       0.847165        23.0525 
 165   0.0000       0.847166        23.0525 
 166   0.0000       0.880790        23.9675 
 167   0.0000       0.880791        23.9675 
 168   0.0000       0.880792        23.9676 
 169   0.0000       0.915091        24.9009 
 170   0.0000       0.915092        24.9009 
 171   0.0000       0.918952        25.0059 
 172   0.0000       0.918952        25.0060 
 173   0.0000       0.918955        25.0060 
 174   0.0000       0.921347        25.0711 
 175   0.0000       0.921348        25.0711 
 176   0.0000       0.921348        25.0712 
 177   0.0000       0.945469        25.7275 
 178   0.0000       0.945470        25.7276 
 179   0.0000       0.945473        25.7276 
 180   0.0000       1.001388        27.2491 
 181   0.0000       1.032459        28.0946 
 182   0.0000       1.032459        28.0946 
 183   0.0000       1.071848        29.1665 
 184   0.0000       1.071849        29.1665 
 185   0.0000       1.071851        29.1666 
 186   0.0000       1.077000        29.3067 
 187   0.0000       1.133105        30.8333 
 188   0.0000       1.133105        30.8334 
 189   0.0000       1.133105        30.8334 
 190   0.0000       1.183512        32.2050 
 191   0.0000       1.183514        32.2050 
 192   0.0000       1.183515        32.2051 
 193   0.0000       1.205933        32.8151 
 194   0.0000       1.205933        32.8151 
 195   0.0000       1.259201        34.2646 
 196   0.0000       1.259201        34.2646 
 197   0.0000       1.259201        34.2646 
 198   0.0000       1.316839        35.8330 
 199   0.0000       1.330672        36.2094 
 200   0.0000       1.330674        36.2095 
 201   0.0000       1.330675        36.2095 
 202   0.0000       1.385170        37.6924 
 203   0.0000       1.385170        37.6924 
 204   0.0000       1.385171        37.6924 
 205   0.0000       1.472502        40.0688 
 206   0.0000       1.503600        40.9150 
 207   0.0000       1.503600        40.9150 
 208   0.0000       1.503600        40.9150 
 209   0.0000       1.569350        42.7042 
 210   0.0000       1.569351        42.7042 
 211   0.0000       1.569352        42.7042 
 212   0.0000       1.576786        42.9065 
 213   0.0000       1.622622        44.1538 
 214   0.0000       1.622623        44.1538 
 215   0.0000       1.622625        44.1539 
 216   0.0000       1.627432        44.2847 
 217   0.0000       1.627432        44.2847 
 218   0.0000       1.655536        45.0494 
 219   0.0000       1.655537        45.0494 
 220   0.0000       1.655537        45.0494 
 221   0.0000       1.672882        45.5214 
 222   0.0000       1.672882        45.5214 
 223   0.0000       1.672882        45.5214 
 224   0.0000       1.835694        49.9518 
 225   0.0000       1.835694        49.9518 
 226   0.0000       1.844399        50.1886 
 227   0.0000       1.844399        50.1887 
 228   0.0000       1.844401        50.1887 
 229   0.0000       2.081189        56.6320 
 230   0.0000       2.203071        59.9486 
 231   0.0000       2.234241        60.7968 
 232   0.0000       2.234242        60.7968 
 233   0.0000       2.234242        60.7968 
 234   0.0000       2.256590        61.4049 
 235   0.0000       2.256590        61.4049 
 236   0.0000       2.414432        65.7000 
 237   0.0000       2.414432        65.7000 
 238   0.0000       2.414432        65.7000 
 239   0.0000       2.423903        65.9577 
 240   0.0000       2.423903        65.9577 
 241   0.0000       2.423903        65.9578 
 242   0.0000       2.482536        67.5532 
 243   0.0000       2.482536        67.5532 
 244   0.0000       2.547388        69.3180 
 245   0.0000       2.547389        69.3180 
 246   0.0000       2.547390        69.3180 
 247   0.0000       2.664233        72.4975 
 248   0.0000       2.664234        72.4975 
 249   0.0000       2.664234        72.4975 
 250   0.0000       2.755362        74.9772 
 251   0.0000       2.755362        74.9772 
 252   0.0000       2.755362        74.9772 
 253   0.0000       2.779615        75.6372 
 254   0.0000       3.070998        83.5661 
 255   0.0000       3.070998        83.5661 
 256   0.0000       3.070998        83.5661 
 257   0.0000       3.126888        85.0870 
 258   0.0000       3.126888        85.0870 
 259   0.0000       3.126888        85.0870 
 260   0.0000       3.235416        88.0402 
 261   0.0000       3.235416        88.0402 
 262   0.0000       3.303889        89.9034 
 263   0.0000       3.321642        90.3865 
 264   0.0000       3.321642        90.3865 
 265   0.0000       3.324606        90.4671 
 266   0.0000       3.324607        90.4671 
 267   0.0000       3.324607        90.4671 
 268   0.0000       3.411584        92.8339 
 269   0.0000       3.411584        92.8339 
 270   0.0000       3.411585        92.8340 
 271   0.0000       3.460761        94.1721 
 272   0.0000       3.460761        94.1721 
 273   0.0000       3.460761        94.1721 
 274   0.0000       3.506929        95.4284 
 275   0.0000       3.526469        95.9601 
 276   0.0000       3.526469        95.9601 
 277   0.0000       3.526470        95.9601 
 278   0.0000       3.570357        97.1543 
 279   0.0000       3.579455        97.4019 
 280   0.0000       3.579456        97.4019 
 281   0.0000       3.579456        97.4019 
 282   0.0000       3.681353       100.1747 
 283   0.0000       3.681354       100.1747 
 284   0.0000       3.681354       100.1747 
 285   0.0000       3.738286       101.7239 
 286   0.0000       3.761887       102.3662 
 287   0.0000       3.761887       102.3662 
 288   0.0000       3.886610       105.7600 
 289   0.0000       3.886610       105.7600 
 290   0.0000       3.886610       105.7600 
 291   0.0000       3.913276       106.4857 
 292   0.0000       3.913276       106.4857 
 293   0.0000       3.913277       106.4857 
 294   0.0000       3.936671       107.1223 
 295   0.0000       3.936671       107.1223 
 296   0.0000       3.936671       107.1223 
 297   0.0000       4.175725       113.6273 
 298   0.0000       4.175725       113.6273 
 299   0.0000       4.175725       113.6273 
 300   0.0000       4.417655       120.2105 
 301   0.0000       4.417655       120.2105 
 302   0.0000       4.417655       120.2105 
 303   0.0000       4.508724       122.6886 
 304   0.0000       4.681285       127.3842 
 305   0.0000       4.681285       127.3842 
 306   0.0000       4.825402       131.3059 
 307   0.0000       4.925656       134.0339 
 308   0.0000       4.925656       134.0339 
 309   0.0000       4.925656       134.0339 
 310   0.0000       4.968891       135.2104 
 311   0.0000       4.968891       135.2104 
 312   0.0000       4.968892       135.2104 
 313   0.0000       4.994084       135.8959 
 314   0.0000       4.994084       135.8959 
 315   0.0000       5.172737       140.7573 
 316   0.0000       5.172737       140.7573 
 317   0.0000       5.172738       140.7573 
 318   0.0000       5.276459       143.5798 
 319   0.0000       5.302074       144.2768 
 320   0.0000       5.302074       144.2768 
 321   0.0000       5.302074       144.2768 
 322   0.0000       5.445015       148.1664 
 323   0.0000       5.445015       148.1664 
 324   0.0000       5.718438       155.6066 
 325   0.0000       5.718438       155.6066 
 326   0.0000       5.718438       155.6066 
 327   0.0000       5.829383       158.6256 
 328   0.0000       5.829383       158.6256 
 329   0.0000       5.829383       158.6256 
 330   0.0000       6.303019       171.5139 
 331   0.0000       6.303019       171.5139 
 332   0.0000       6.303020       171.5139 
 333   0.0000       6.509587       177.1349 
 334   0.0000       6.509587       177.1349 
 335   0.0000       6.569829       178.7741 
 336   0.0000       6.569829       178.7741 
 337   0.0000       6.569829       178.7741 
 338   0.0000       7.021200       191.0566 
 339   0.0000       7.021200       191.0566 
 340   0.0000       7.042938       191.6481 
 341   0.0000       7.079955       192.6554 
 342   0.0000       7.079955       192.6554 
 343   0.0000       7.079955       192.6554 
 344   0.0000       7.451806       202.7740 
 345   0.0000       7.451807       202.7740 
 346   0.0000       7.451807       202.7740 
 347   0.0000       8.443467       229.7584 
 348   0.0000       8.443467       229.7584 
 349   0.0000       8.443467       229.7584 
 350   0.0000       8.588737       233.7114 
 351   0.0000       8.588737       233.7114 
 352   0.0000       8.678426       236.1520 
 353   0.0000       8.678426       236.1520 
 354   0.0000       8.678426       236.1520 
 355   0.0000       8.877959       241.5815 
 356   0.0000       8.898568       242.1423 
 357   0.0000       8.898568       242.1423 
 358   0.0000       8.898568       242.1423 
 359   0.0000       8.904444       242.3022 
 360   0.0000       8.904444       242.3022 
 361   0.0000       8.904444       242.3022 
 362   0.0000       8.943677       243.3698 
 363   0.0000       8.943677       243.3698 
 364   0.0000       9.014304       245.2917 
 365   0.0000       9.014304       245.2917 
 366   0.0000       9.014304       245.2917 
 367   0.0000       9.036691       245.9009 
 368   0.0000       9.036691       245.9009 
 369   0.0000       9.036691       245.9009 
 370   0.0000       9.361857       254.7491 
 371   0.0000       9.361857       254.7491 
 372   0.0000       9.361857       254.7491 
 373   0.0000       9.422634       256.4029 
 374   0.0000       9.422635       256.4029 
 375   0.0000       9.422635       256.4029 
 376   0.0000       9.437934       256.8193 
 377   0.0000       9.437934       256.8193 
 378   0.0000       9.440020       256.8760 
 379   0.0000      10.136639       275.8320 
 380   0.0000      10.136639       275.8320 
 381   0.0000      10.136639       275.8320 
 382   0.0000      10.144253       276.0391 
 383   0.0000      10.144253       276.0391 
 384   0.0000      10.144253       276.0391 
 385   0.0000      10.503671       285.8194 
 386   0.0000      10.731125       292.0088 
 387   0.0000      11.443296       311.3879 
 388   0.0000      11.443296       311.3879 
 389   0.0000      11.443297       311.3879 
 390   0.0000      12.239462       333.0527 
 391   0.0000      12.329053       335.4906 
 392   0.0000      12.329053       335.4906 
 393   0.0000      12.329053       335.4906 
 394   0.0000      12.391807       337.1982 
 395   0.0000      12.391807       337.1982 
 396   0.0000      12.391807       337.1982 
 397   0.0000      12.465332       339.1989 
 398   0.0000      12.581050       342.3478 
 399   0.0000      12.581050       342.3478 
 400   0.0000      12.581050       342.3478 
 401   0.0000      12.761220       347.2504 
 402   0.0000      12.761220       347.2504 
 403   0.0000      12.761220       347.2504 
 404   0.0000      12.827827       349.0629 
 405   0.0000      12.827827       349.0629 
 406   0.0000      12.936812       352.0286 
 407   0.0000      12.936812       352.0286 
 408   0.0000      12.936812       352.0286 
 409   0.0000      13.151797       357.8786 
 410   0.0000      13.151797       357.8786 
 411   0.0000      13.151797       357.8786 
 412   0.0000      13.201276       359.2250 
 413   0.0000      13.201276       359.2250 
 414   0.0000      13.310714       362.2029 
 415   0.0000      13.310714       362.2029 
 416   0.0000      13.310714       362.2029 
 417   0.0000      13.378356       364.0436 
 418   0.0000      15.452313       420.4788 
 419   0.0000      15.452313       420.4788 
 420   0.0000      16.096998       438.0216 
 421   0.0000      16.096998       438.0216 
 422   0.0000      16.096998       438.0216 
 423   0.0000      16.608212       451.9324 
 424   0.0000      16.721549       455.0165 
 425   0.0000      16.744444       455.6395 
 426   0.0000      16.744444       455.6395 
 427   0.0000      16.744444       455.6395 
 428   0.0000      16.745606       455.6711 
 429   0.0000      16.745606       455.6711 
 430   0.0000      16.747700       455.7281 
 431   0.0000      16.747700       455.7281 
 432   0.0000      16.747700       455.7281 
 433   0.0000      16.775820       456.4933 
 434   0.0000      16.775820       456.4933 
 435   0.0000      16.775820       456.4933 
 436   0.0000      16.789931       456.8772 
 437   0.0000      16.789931       456.8772 
 438   0.0000      16.789931       456.8772 
 439   0.0000      16.819146       457.6722 
 440   0.0000      16.898112       459.8210 
 441   0.0000      16.898112       459.8210 
 442   0.0000      16.929744       460.6817 
 443   0.0000      16.929744       460.6817 
 444   0.0000      16.929744       460.6817 
 445   0.0000      17.188296       467.7173 
 446   0.0000      17.188296       467.7173 
 447   0.0000      17.188296       467.7173 
 448   0.0000      17.372980       472.7428 
 449   0.0000      17.372980       472.7428 
 450   0.0000      17.372980       472.7428 
 451   0.0000      17.440782       474.5878 
 452   0.0000      17.440782       474.5878 
 453   0.0000      17.440783       474.5878 
 454   0.0000      17.848736       485.6888 
 455   0.0000      17.848736       485.6888 
 456   0.0000      17.900514       487.0978 
 457   0.0000      17.900514       487.0978 
 458   0.0000      17.900514       487.0978 
 459   0.0000      23.312287       634.3596 
 460   0.0000      23.312287       634.3596 
 461   0.0000      23.312287       634.3596 
 462   0.0000      23.440497       637.8483 
 463   0.0000      23.440497       637.8483 
 464   0.0000      23.460917       638.4040 
 465   0.0000      23.460917       638.4040 
 466   0.0000      23.460917       638.4040 
 467   0.0000      23.544377       640.6751 
 468   0.0000      23.939878       651.4372 
 469   0.0000      23.939878       651.4372 
 470   0.0000      23.939878       651.4372 
 471   0.0000      25.986422       707.1265 
 472   0.0000      39.481133      1074.3363 
 473   0.0000      39.724287      1080.9528 
 474   0.0000      39.724287      1080.9528 
 475   0.0000      39.724287      1080.9528 
 476   0.0000      55.443225      1508.6869 
 477   0.0000      55.443225      1508.6869 
 478   0.0000      55.834594      1519.3365 
 479   0.0000      55.834594      1519.3365 
 480   0.0000      55.834594      1519.3365 
 481   0.0000      90.939799      2474.5977 
 482   0.0000      90.939799      2474.5977 
 483   0.0000      90.939799      2474.5977 
 484   0.0000      91.034827      2477.1836 
 485   0.0000      91.034827      2477.1836 
 486   0.0000      91.048031      2477.5429 
 487   0.0000      91.048031      2477.5429 
 488   0.0000      91.048031      2477.5429 
 489   0.0000      91.398138      2487.0698 
 490   0.0000      91.398138      2487.0698 
 491   0.0000      91.398138      2487.0698 
 492   0.0000      91.613919      2492.9415 

                    ********************************
                    * MULLIKEN POPULATION ANALYSIS *
                    ********************************

--------------------------------------------
MULLIKEN ATOMIC CHARGES AND SPIN POPULATIONS
--------------------------------------------
   0 Si:    0.097187    0.000000
   1 H :   -0.024288   -0.000000
   2 H :   -0.024283   -0.000000
   3 H :   -0.024305   -0.000000
   4 H :   -0.024310   -0.000000
Sum of atomic charges         :    0.0000000
Sum of atomic spin populations:   -0.0000000

-----------------------------------------------------
MULLIKEN REDUCED ORBITAL CHARGES AND SPIN POPULATIONS
-----------------------------------------------------
CHARGE
  0 Sis       :     5.350398  s :     5.350398
      pz      :     2.801972  p :     8.405925
      px      :     2.801979
      py      :     2.801975
      dz2     :     0.000000  d :     0.135674
      dxz     :     0.045224
      dyz     :     0.045225
      dx2y2   :     0.000000
      dxy     :     0.045224
      f0      :     0.001431  f :     0.008988
      f+1     :     0.000537
      f-1     :     0.000537
      f+2     :     0.000000
      f-2     :     0.004695
      f+3     :     0.000894
      f-3     :     0.000894
      g0      :     0.000186  g :     0.001499
      g+1     :     0.000049
      g-1     :     0.000049
      g+2     :    -0.000000
      g-2     :     0.000393
      g+3     :     0.000344
      g-3     :     0.000344
      g+4     :     0.000133
      g-4     :    -0.000000
      h0      :    -0.000018  h :     0.000329
      h+1     :     0.000025
      h-1     :     0.000025
      h+2     :    -0.000000
      h-2     :    -0.000000
      h+3     :     0.000095
      h-3     :     0.000095
      h+4     :     0.000128
      h-4     :    -0.000000
      h+5     :    -0.000010
      h-5     :    -0.000010
  1 H s       :     1.115068  s :     1.115068
      pz      :    -0.011338  p :    -0.034008
      px      :    -0.011335
      py      :    -0.011336
      dz2     :    -0.011711  d :    -0.042277
      dxz     :    -0.006285
      dyz     :    -0.006285
      dx2y2   :    -0.011711
      dxy     :    -0.006286
      f0      :     0.000267  f :    -0.013059
      f+1     :    -0.002521
      f-1     :    -0.002521
      f+2     :    -0.004193
      f-2     :    -0.001280
      f+3     :    -0.001406
      f-3     :    -0.001406
      g0      :    -0.000096  g :    -0.001435
      g+1     :    -0.000074
      g-1     :    -0.000074
      g+2     :    -0.000369
      g-2     :    -0.000211
      g+3     :    -0.000191
      g-3     :    -0.000192
      g+4     :    -0.000174
      g-4     :    -0.000054
  2 H s       :     1.115061  s :     1.115061
      pz      :    -0.011334  p :    -0.034006
      px      :    -0.011337
      py      :    -0.011335
      dz2     :    -0.011711  d :    -0.042277
      dxz     :    -0.006286
      dyz     :    -0.006285
      dx2y2   :    -0.011710
      dxy     :    -0.006286
      f0      :     0.000267  f :    -0.013059
      f+1     :    -0.002521
      f-1     :    -0.002521
      f+2     :    -0.004193
      f-2     :    -0.001280
      f+3     :    -0.001406
      f-3     :    -0.001406
      g0      :    -0.000096  g :    -0.001435
      g+1     :    -0.000074
      g-1     :    -0.000074
      g+2     :    -0.000369
      g-2     :    -0.000211
      g+3     :    -0.000192
      g-3     :    -0.000192
      g+4     :    -0.000174
      g-4     :    -0.000054
  3 H s       :     1.115084  s :     1.115084
      pz      :    -0.011334  p :    -0.034006
      px      :    -0.011336
      py      :    -0.011336
      dz2     :    -0.011711  d :    -0.042278
      dxz     :    -0.006286
      dyz     :    -0.006285
      dx2y2   :    -0.011711
      dxy     :    -0.006286
      f0      :     0.000267  f :    -0.013059
      f+1     :    -0.002521
      f-1     :    -0.002521
      f+2     :    -0.004193
      f-2     :    -0.001280
      f+3     :    -0.001406
      f-3     :    -0.001406
      g0      :    -0.000096  g :    -0.001435
      g+1     :    -0.000074
      g-1     :    -0.000074
      g+2     :    -0.000369
      g-2     :    -0.000211
      g+3     :    -0.000191
      g-3     :    -0.000192
      g+4     :    -0.000174
      g-4     :    -0.000054
  4 H s       :     1.115079  s :     1.115079
      pz      :    -0.011333  p :    -0.033999
      px      :    -0.011332
      py      :    -0.011334
      dz2     :    -0.011710  d :    -0.042276
      dxz     :    -0.006285
      dyz     :    -0.006285
      dx2y2   :    -0.011711
      dxy     :    -0.006285
      f0      :     0.000267  f :    -0.013058
      f+1     :    -0.002521
      f-1     :    -0.002521
      f+2     :    -0.004193
      f-2     :    -0.001280
      f+3     :    -0.001406
      f-3     :    -0.001406
      g0      :    -0.000096  g :    -0.001435
      g+1     :    -0.000074
      g-1     :    -0.000074
      g+2     :    -0.000369
      g-2     :    -0.000211
      g+3     :    -0.000192
      g-3     :    -0.000192
      g+4     :    -0.000174
      g-4     :    -0.000054

SPIN
  0 Sis       :     0.000000  s :     0.000000
      pz      :    -0.000000  p :     0.000000
      px      :     0.000000
      py      :     0.000000
      dz2     :     0.000000  d :     0.000000
      dxz     :     0.000000
      dyz     :     0.000000
      dx2y2   :     0.000000
      dxy     :    -0.000000
      f0      :     0.000000  f :    -0.000000
      f+1     :    -0.000000
      f-1     :     0.000000
      f+2     :     0.000000
      f-2     :    -0.000000
      f+3     :     0.000000
      f-3     :    -0.000000
      g0      :    -0.000000  g :    -0.000000
      g+1     :    -0.000000
      g-1     :     0.000000
      g+2     :    -0.000000
      g-2     :     0.000000
      g+3     :    -0.000000
      g-3     :    -0.000000
      g+4     :    -0.000000
      g-4     :    -0.000000
      h0      :     0.000000  h :    -0.000000
      h+1     :    -0.000000
      h-1     :    -0.000000
      h+2     :    -0.000000
      h-2     :     0.000000
      h+3     :     0.000000
      h-3     :     0.000000
      h+4     :     0.000000
      h-4     :    -0.000000
      h+5     :    -0.000000
      h-5     :    -0.000000
  1 H s       :    -0.000000  s :    -0.000000
      pz      :    -0.000000  p :    -0.000000
      px      :    -0.000000
      py      :    -0.000000
      dz2     :    -0.000000  d :    -0.000000
      dxz     :    -0.000000
      dyz     :    -0.000000
      dx2y2   :    -0.000000
      dxy     :    -0.000000
      f0      :     0.000000  f :    -0.000000
      f+1     :    -0.000000
      f-1     :    -0.000000
      f+2     :    -0.000000
      f-2     :     0.000000
      f+3     :     0.000000
      f-3     :    -0.000000
      g0      :    -0.000000  g :    -0.000000
      g+1     :    -0.000000
      g-1     :    -0.000000
      g+2     :    -0.000000
      g-2     :    -0.000000
      g+3     :    -0.000000
      g-3     :    -0.000000
      g+4     :    -0.000000
      g-4     :    -0.000000
  2 H s       :    -0.000000  s :    -0.000000
      pz      :    -0.000000  p :    -0.000000
      px      :    -0.000000
      py      :    -0.000000
      dz2     :     0.000000  d :    -0.000000
      dxz     :     0.000000
      dyz     :    -0.000000
      dx2y2   :    -0.000000
      dxy     :    -0.000000
      f0      :     0.000000  f :     0.000000
      f+1     :     0.000000
      f-1     :    -0.000000
      f+2     :    -0.000000
      f-2     :     0.000000
      f+3     :     0.000000
      f-3     :     0.000000
      g0      :     0.000000  g :     0.000000
      g+1     :     0.000000
      g-1     :    -0.000000
      g+2     :    -0.000000
      g-2     :    -0.000000
      g+3     :    -0.000000
      g-3     :     0.000000
      g+4     :     0.000000
      g-4     :    -0.000000
  3 H s       :     0.000000  s :     0.000000
      pz      :    -0.000000  p :    -0.000000
      px      :    -0.000000
      py      :    -0.000000
      dz2     :    -0.000000  d :    -0.000000
      dxz     :    -0.000000
      dyz     :    -0.000000
      dx2y2   :    -0.000000
      dxy     :    -0.000000
      f0      :    -0.000000  f :     0.000000
      f+1     :     0.000000
      f-1     :     0.000000
      f+2     :     0.000000
      f-2     :    -0.000000
      f+3     :    -0.000000
      f-3     :     0.000000
      g0      :    -0.000000  g :     0.000000
      g+1     :     0.000000
      g-1     :     0.000000
      g+2     :     0.000000
      g-2     :    -0.000000
      g+3     :     0.000000
      g-3     :     0.000000
      g+4     :     0.000000
      g-4     :    -0.000000
  4 H s       :    -0.000000  s :    -0.000000
      pz      :    -0.000000  p :    -0.000000
      px      :    -0.000000
      py      :    -0.000000
      dz2     :    -0.000000  d :    -0.000000
      dxz     :     0.000000
      dyz     :    -0.000000
      dx2y2   :    -0.000000
      dxy     :    -0.000000
      f0      :     0.000000  f :     0.000000
      f+1     :     0.000000
      f-1     :    -0.000000
      f+2     :     0.000000
      f-2     :     0.000000
      f+3     :     0.000000
      f-3     :    -0.000000
      g0      :    -0.000000  g :     0.000000
      g+1     :     0.000000
      g-1     :    -0.000000
      g+2     :     0.000000
      g-2     :    -0.000000
      g+3     :     0.000000
      g-3     :     0.000000
      g+4     :    -0.000000
      g-4     :     0.000000


                     *******************************
                     * LOEWDIN POPULATION ANALYSIS *
                     *******************************

-------------------------------------------
LOEWDIN ATOMIC CHARGES AND SPIN POPULATIONS
-------------------------------------------
   0 Si:    1.820048    0.000000
   1 H :   -0.455012   -0.000000
   2 H :   -0.455012   -0.000000
   3 H :   -0.455012    0.000000
   4 H :   -0.455012   -0.000000

----------------------------------------------------
LOEWDIN REDUCED ORBITAL CHARGES AND SPIN POPULATIONS
----------------------------------------------------
CHARGE
  0 Sis       :     4.341008  s :     4.341008
      pz      :     2.487861  p :     7.463582
      px      :     2.487861
      py      :     2.487861
      dz2     :     0.000000  d :     0.306242
      dxz     :     0.102081
      dyz     :     0.102081
      dx2y2   :     0.000000
      dxy     :     0.102081
      f0      :     0.013465  f :     0.056166
      f+1     :     0.005050
      f-1     :     0.005050
      f+2     :     0.000000
      f-2     :     0.015770
      f+3     :     0.008416
      f-3     :     0.008416
      g0      :     0.001175  g :     0.010805
      g+1     :     0.000366
      g-1     :     0.000366
      g+2     :     0.000000
      g-2     :     0.002930
      g+3     :     0.002564
      g-3     :     0.002564
      g+4     :     0.000839
      g-4     :     0.000000
      h0      :     0.000051  h :     0.002149
      h+1     :     0.000265
      h-1     :     0.000265
      h+2     :     0.000000
      h-2     :     0.000000
      h+3     :     0.000383
      h-3     :     0.000383
      h+4     :     0.000666
      h-4     :     0.000000
      h+5     :     0.000068
      h-5     :     0.000068
  1 H s       :     0.773752  s :     0.773752
      pz      :     0.081434  p :     0.244303
      px      :     0.081434
      py      :     0.081434
      dz2     :     0.036714  d :     0.234232
      dxz     :     0.053601
      dyz     :     0.053601
      dx2y2   :     0.036714
      dxy     :     0.053601
      f0      :     0.004151  f :     0.137810
      f+1     :     0.025626
      f-1     :     0.025626
      f+2     :     0.038511
      f-2     :     0.009826
      f+3     :     0.017036
      f-3     :     0.017036
      g0      :     0.008851  g :     0.064915
      g+1     :     0.001765
      g-1     :     0.001765
      g+2     :     0.016922
      g-2     :     0.008530
      g+3     :     0.007564
      g-3     :     0.007564
      g+4     :     0.011157
      g-4     :     0.000798
  2 H s       :     0.773752  s :     0.773752
      pz      :     0.081434  p :     0.244303
      px      :     0.081434
      py      :     0.081434
      dz2     :     0.036714  d :     0.234232
      dxz     :     0.053601
      dyz     :     0.053601
      dx2y2   :     0.036714
      dxy     :     0.053601
      f0      :     0.004151  f :     0.137810
      f+1     :     0.025626
      f-1     :     0.025626
      f+2     :     0.038511
      f-2     :     0.009826
      f+3     :     0.017036
      f-3     :     0.017036
      g0      :     0.008851  g :     0.064915
      g+1     :     0.001765
      g-1     :     0.001765
      g+2     :     0.016922
      g-2     :     0.008530
      g+3     :     0.007564
      g-3     :     0.007564
      g+4     :     0.011157
      g-4     :     0.000798
  3 H s       :     0.773752  s :     0.773752
      pz      :     0.081434  p :     0.244303
      px      :     0.081434
      py      :     0.081434
      dz2     :     0.036714  d :     0.234232
      dxz     :     0.053601
      dyz     :     0.053601
      dx2y2   :     0.036714
      dxy     :     0.053601
      f0      :     0.004151  f :     0.137810
      f+1     :     0.025626
      f-1     :     0.025626
      f+2     :     0.038511
      f-2     :     0.009826
      f+3     :     0.017036
      f-3     :     0.017036
      g0      :     0.008851  g :     0.064915
      g+1     :     0.001765
      g-1     :     0.001765
      g+2     :     0.016922
      g-2     :     0.008530
      g+3     :     0.007564
      g-3     :     0.007564
      g+4     :     0.011157
      g-4     :     0.000798
  4 H s       :     0.773752  s :     0.773752
      pz      :     0.081434  p :     0.244303
      px      :     0.081434
      py      :     0.081434
      dz2     :     0.036714  d :     0.234232
      dxz     :     0.053601
      dyz     :     0.053601
      dx2y2   :     0.036714
      dxy     :     0.053601
      f0      :     0.004151  f :     0.137810
      f+1     :     0.025626
      f-1     :     0.025626
      f+2     :     0.038511
      f-2     :     0.009826
      f+3     :     0.017036
      f-3     :     0.017036
      g0      :     0.008851  g :     0.064915
      g+1     :     0.001765
      g-1     :     0.001765
      g+2     :     0.016922
      g-2     :     0.008530
      g+3     :     0.007564
      g-3     :     0.007564
      g+4     :     0.011157
      g-4     :     0.000798

SPIN
  0 Sis       :     0.000000  s :     0.000000
      pz      :    -0.000000  p :     0.000000
      px      :     0.000000
      py      :     0.000000
      dz2     :    -0.000000  d :    -0.000000
      dxz     :    -0.000000
      dyz     :    -0.000000
      dx2y2   :    -0.000000
      dxy     :    -0.000000
      f0      :     0.000000  f :     0.000000
      f+1     :    -0.000000
      f-1     :     0.000000
      f+2     :    -0.000000
      f-2     :     0.000000
      f+3     :     0.000000
      f-3     :     0.000000
      g0      :     0.000000  g :     0.000000
      g+1     :    -0.000000
      g-1     :    -0.000000
      g+2     :     0.000000
      g-2     :     0.000000
      g+3     :    -0.000000
      g-3     :    -0.000000
      g+4     :     0.000000
      g-4     :    -0.000000
      h0      :    -0.000000  h :     0.000000
      h+1     :     0.000000
      h-1     :     0.000000
      h+2     :    -0.000000
      h-2     :    -0.000000
      h+3     :    -0.000000
      h-3     :     0.000000
      h+4     :     0.000000
      h-4     :     0.000000
      h+5     :     0.000000
      h-5     :    -0.000000
  1 H s       :    -0.000000  s :    -0.000000
      pz      :    -0.000000  p :    -0.000000
      px      :    -0.000000
      py      :    -0.000000
      dz2     :     0.000000  d :     0.000000
      dxz     :    -0.000000
      dyz     :     0.000000
      dx2y2   :    -0.000000
      dxy     :    -0.000000
      f0      :     0.000000  f :    -0.000000
      f+1     :    -0.000000
      f-1     :    -0.000000
      f+2     :    -0.000000
      f-2     :     0.000000
      f+3     :    -0.000000
      f-3     :     0.000000
      g0      :    -0.000000  g :     0.000000
      g+1     :     0.000000
      g-1     :    -0.000000
      g+2     :     0.000000
      g-2     :     0.000000
      g+3     :    -0.000000
      g-3     :     0.000000
      g+4     :     0.000000
      g-4     :     0.000000
  2 H s       :    -0.000000  s :    -0.000000
      pz      :    -0.000000  p :    -0.000000
      px      :    -0.000000
      py      :    -0.000000
      dz2     :     0.000000  d :     0.000000
      dxz     :     0.000000
      dyz     :     0.000000
      dx2y2   :     0.000000
      dxy     :     0.000000
      f0      :    -0.000000  f :     0.000000
      f+1     :     0.000000
      f-1     :     0.000000
      f+2     :    -0.000000
      f-2     :    -0.000000
      f+3     :    -0.000000
      f-3     :    -0.000000
      g0      :     0.000000  g :     0.000000
      g+1     :     0.000000
      g-1     :    -0.000000
      g+2     :     0.000000
      g-2     :    -0.000000
      g+3     :    -0.000000
      g-3     :    -0.000000
      g+4     :     0.000000
      g-4     :     0.000000
  3 H s       :     0.000000  s :     0.000000
      pz      :    -0.000000  p :    -0.000000
      px      :    -0.000000
      py      :    -0.000000
      dz2     :     0.000000  d :     0.000000
      dxz     :     0.000000
      dyz     :     0.000000
      dx2y2   :     0.000000
      dxy     :     0.000000
      f0      :     0.000000  f :    -0.000000
      f+1     :    -0.000000
      f-1     :    -0.000000
      f+2     :    -0.000000
      f-2     :    -0.000000
      f+3     :    -0.000000
      f-3     :     0.000000
      g0      :     0.000000  g :    -0.000000
      g+1     :     0.000000
      g-1     :     0.000000
      g+2     :    -0.000000
      g-2     :    -0.000000
      g+3     :    -0.000000
      g-3     :     0.000000
      g+4     :     0.000000
      g-4     :    -0.000000
  4 H s       :     0.000000  s :     0.000000
      pz      :    -0.000000  p :    -0.000000
      px      :    -0.000000
      py      :    -0.000000
      dz2     :     0.000000  d :     0.000000
      dxz     :     0.000000
      dyz     :     0.000000
      dx2y2   :     0.000000
      dxy     :     0.000000
      f0      :     0.000000  f :    -0.000000
      f+1     :    -0.000000
      f-1     :     0.000000
      f+2     :    -0.000000
      f-2     :    -0.000000
      f+3     :     0.000000
      f-3     :    -0.000000
      g0      :     0.000000  g :    -0.000000
      g+1     :     0.000000
      g-1     :     0.000000
      g+2     :    -0.000000
      g-2     :     0.000000
      g+3     :     0.000000
      g-3     :    -0.000000
      g+4     :     0.000000
      g-4     :    -0.000000


                      *****************************
                      * MAYER POPULATION ANALYSIS *
                      *****************************

  NA   - Mulliken gross atomic population
  ZA   - Total nuclear charge
  QA   - Mulliken gross atomic charge
  VA   - Mayer's total valence
  BVA  - Mayer's bonded valence
  FA   - Mayer's free valence

  ATOM       NA         ZA         QA         VA         BVA        FA
  0 Si    13.9028    14.0000     0.0972     3.7585     3.7585     0.0000
  1 H      1.0243     1.0000    -0.0243     0.6933     0.6933     0.0000
  2 H      1.0243     1.0000    -0.0243     0.6933     0.6933     0.0000
  3 H      1.0243     1.0000    -0.0243     0.6933     0.6933    -0.0000
  4 H      1.0243     1.0000    -0.0243     0.6933     0.6933     0.0000

  Mayer bond orders larger than 0.1
B(  0-Si,  1-H ) :   0.9396 B(  0-Si,  2-H ) :   0.9396 B(  0-Si,  3-H ) :   0.9396 
B(  0-Si,  4-H ) :   0.9397 

-------
TIMINGS
-------

Total SCF time: 0 days 1 hours 47 min 23 sec 

Total time                  ....    6443.312 sec
Sum of individual times     ....    6442.244 sec  (100.0%)

Fock matrix formation       ....    6424.652 sec  ( 99.7%)
  XC integration            ....     207.915 sec  (  3.2% of F)
    Basis function eval.    ....      14.607 sec  (  7.0% of XC)
    Density eval.           ....      51.992 sec  ( 25.0% of XC)
    XC-Functional eval.     ....       1.401 sec  (  0.7% of XC)
    XC-Potential eval.      ....     138.814 sec  ( 66.8% of XC)
Diagonalization             ....       2.482 sec  (  0.0%)
Density matrix formation    ....       0.045 sec  (  0.0%)
Population analysis         ....       0.293 sec  (  0.0%)
Initial guess               ....      10.405 sec  (  0.2%)
Orbital Transformation      ....       0.000 sec  (  0.0%)
Orbital Orthonormalization  ....       0.000 sec  (  0.0%)
DIIS solution               ....       0.984 sec  (  0.0%)
Grid generation             ....       3.384 sec  (  0.1%)

-------------------------   --------------------
FINAL SINGLE POINT ENERGY      -291.733704524021
-------------------------   --------------------


                            ***************************************
                            *     ORCA property calculations      *
                            ***************************************

                                    ---------------------
                                    Active property flags
                                    ---------------------
   (+) Dipole Moment
   (+) Polarizability


------------------------------------------------------------------------------
                       ORCA ELECTRIC PROPERTIES CALCULATION
------------------------------------------------------------------------------

Dipole Moment Calculation                       ... on
Quadrupole Moment Calculation                   ... off
Polarizability Calculation                      ... Analytic (CP-SCF)
GBWName                                         ... sih4_pbe.gbw
Electron density file                           ... sih4_pbe.scfp.tmp
The origin for moment calculation is the CENTER OF MASS  = ( 0.000000,  0.000000  0.000000)

-------------
DIPOLE MOMENT
-------------
                                X             Y             Z
Electronic contribution:     -0.00000      -0.00000       0.00000
Nuclear contribution   :      0.00000       0.00000       0.00000
                        -----------------------------------------
Total Dipole Moment    :     -0.00000      -0.00000       0.00000
                        -----------------------------------------
Magnitude (a.u.)       :      0.00000
Magnitude (Debye)      :      0.00000



--------------------
Rotational spectrum 
--------------------
 
Rotational constants in cm-1:     2.863676     2.863676     2.863676 
Rotational constants in MHz : 85850.851198 85850.851198 85850.851198 

 Dipole components along the rotational axes: 
x,y,z [a.u.] :    -0.000000    -0.000000     0.000000 
x,y,z [Debye]:    -0.000000    -0.000000     0.000000 

 
Transforming and storing MO dipole integrals   ... done

                ... starting polarizability calculation

Opening the Dipole integral file               ... (sih4_pbe.dmo.tmp) done
Reading Dipole-MO integrals                    ... done
Solving CP-SCF equations                       ... 
------------------------------------------------------------------------------
                           ORCA CP-SCF CALCULATION
------------------------------------------------------------------------------

Input orbitals are from        ... sih4_pbe.gbw
Input Perturbation             ... sih4_pbe.cpv.tmp
Wavefunction output            ... sih4_pbe.cpu.tmp
Perturbation mode              ... Real perturbation (singlet)
Solver                         ... POPLE
Max. number of iterations      ... 200
Convergence tolerance          ... 1.000e-06
Integral handling              ... Direct
Number of perturbations        ... 3
Number of operators            ... 2
Orbital ranges used for CP-SCF:
 Operator 0:  Orbitals   0...  8  to   9...492
 Operator 1:  Orbitals   0...  8  to   9...492
DFT calculation                         ... on
Exchange functional (SCF)               ... PBE
Exchange functional (CP-SCF)            ... PBE
   PBE kappa parameter  XKappa (SCF)    ...  0.804000
   PBE kappa parameter  XKappa (CP-SCF) ...  0.804000
   PBE mue parameter   XMuePBE (SCF)    ...  0.219520
   PBE mue parameter   XMuePBE (CP-SCF) ...  0.219520
Correlation functional (SCF)            ... PBE
Correlation functional (CP-SCF)         ... PBE
   PBE beta parameter CBetaPBE (SCF)    ...  0.066725
   PBE beta parameter CBetaPBE (CP-SCF) ...  0.066725
 LDA part of GGA corr.  LDAOpt (SCF)    ... PW91-LDA
 LDA part of GGA corr.  LDAOpt (CP-SCF) ... PW91-LDA
Variables per vector in CP-SCF ... 8712
Number of vectors sought       ... 3
Recalculating density on grid  ... done
Calculating the xc-kernel      ... done
     CP-SCF ITERATION   0: 
     CP-SCF ITERATION   1:      0.019522669501
     CP-SCF ITERATION   2:      0.000062696074
     CP-SCF ITERATION   3:      0.000004003897
     CP-SCF ITERATION   4:      0.000000021539
done
Reading CP-SCF coefficients                    ... done
Doing the polarizability tensor   ... done
Cleaning up                                    ... done

-------------------------
THE POLARIZABILITY TENSOR
-------------------------

The raw cartesian tensor (atomic units):
   33.10034      0.00000     -0.00000  
    0.00000     33.10034      0.00000  
   -0.00000      0.00000     33.10034  
diagonalized tensor: 
   33.10034     33.10034     33.10034  

    0.51302      0.27886     -0.81182  
   -0.63250     -0.51658     -0.57714  
    0.58031     -0.80956      0.08863  

Isotropic polarizability :  33.10034


Timings for individual modules:

Sum of individual times         ...    10967.785 sec (= 182.796 min)
GTO integral calculation        ...        1.662 sec (=   0.028 min)   0.0 %
SCF iterations                  ...     6443.332 sec (= 107.389 min)  58.7 %
Solution of CP-SCF eqns.        ...     4522.791 sec (=  75.380 min)  41.2 %
                             ****ORCA TERMINATED NORMALLY****
TOTAL RUN TIME: 0 days 3 hours 2 minutes 48 seconds 421 msec
