
                                 *****************
                                 * O   R   C   A *
                                 *****************

           --- An Ab Initio, DFT and Semiempirical electronic structure package ---

                  #######################################################
                  #                        -***-                        #
                  #          Department of theory and spectroscopy      #
                  #               Directorship: Frank Neese             #
                  #        Max Planck Institute fuer Kohlenforschung    #
                  #                Kaiser Wilhelm Platz 1               #
                  #                 D-45470 Muelheim/Ruhr               #
                  #                      Germany                        #
                  #                                                     #
                  #                  All rights reserved                #
                  #                        -***-                        #
                  #######################################################


                         Program Version 4.1.2  - RELEASE  -


 With contributions from (in alphabetic order):
   Daniel Aravena         : Magnetic Properties
   Michael Atanasov       : Ab Initio Ligand Field Theory
   Alexander A. Auer      : GIAO ZORA
   Ute Becker             : Parallelization
   Giovanni Bistoni       : ED, Open-shell LED
   Martin Brehm           : Molecular dynamics
   Dmytro Bykov           : SCF Hessian
   Vijay G. Chilkuri      : MRCI spin determinant printing
   Dipayan Datta          : RHF DLPNO-CCSD density
   Achintya Kumar Dutta   : EOM-CC, STEOM-CC
   Dmitry Ganyushin       : Spin-Orbit,Spin-Spin,Magnetic field MRCI
   Miquel Garcia          : C-PCM Hessian
   Yang Guo               : DLPNO-NEVPT2, CIM, IAO-localization
   Andreas Hansen         : Spin unrestricted coupled pair/coupled cluster methods
   Benjamin Helmich-Paris : CASSCF linear response (MC-RPA)
   Lee Huntington         : MR-EOM, pCC
   Robert Izsak           : Overlap fitted RIJCOSX, COSX-SCS-MP3, EOM
   Christian Kollmar      : KDIIS, OOCD, Brueckner-CCSD(T), CCSD density
   Simone Kossmann        : Meta GGA functionals, TD-DFT gradient, OOMP2, MP2 Hessian
   Martin Krupicka        : AUTO-CI
   Lucas Lang             : DCDCAS
   Dagmar Lenk            : GEPOL surface, SMD
   Dimitrios Liakos       : Extrapolation schemes; parallel MDCI
   Dimitrios Manganas     : ROCIS; embedding schemes
   Dimitrios Pantazis     : SARC Basis sets
   Taras Petrenko         : DFT Hessian,TD-DFT gradient, ASA, ECA, R-Raman, ABS, FL, XAS/XES, NRVS
   Peter Pinski           : DLPNO-MP2, DLPNO-MP2 Gradient
   Christoph Reimann      : Effective Core Potentials
   Marius Retegan         : Local ZFS, SOC
   Christoph Riplinger    : Optimizer, TS searches, QM/MM, DLPNO-CCSD(T), (RO)-DLPNO pert. Triples
   Tobias Risthaus        : Range-separated hybrids, TD-DFT gradient, RPA, STAB
   Michael Roemelt        : Restricted open shell CIS
   Masaaki Saitow         : Open-shell DLPNO
   Barbara Sandhoefer     : DKH picture change effects
   Avijit Sen             : IP-ROCIS
   Kantharuban Sivalingam : CASSCF convergence, NEVPT2, FIC-MRCI
   Bernardo de Souza      : ESD, SOC TD-DFT
   Georgi Stoychev        : AutoAux, RI-MP2 NMR
   Willem Van den Heuvel  : Paramagnetic NMR
   Boris Wezisla          : Elementary symmetry handling
   Frank Wennmohs         : Technical directorship


 We gratefully acknowledge several colleagues who have allowed us to
 interface, adapt or use parts of their codes:
   Stefan Grimme, W. Hujo, H. Kruse,             : VdW corrections, initial TS optimization,
                  C. Bannwarth                     DFT functionals, gCP, sTDA/sTD-DF
   Ed Valeev                                     : LibInt (2-el integral package), F12 methods
   Garnet Chan, S. Sharma, J. Yang, R. Olivares  : DMRG
   Ulf Ekstrom                                   : XCFun DFT Library
   Mihaly Kallay                                 : mrcc  (arbitrary order and MRCC methods)
   Andreas Klamt, Michael Diedenhofen            : otool_cosmo (COSMO solvation model)
   Jiri Pittner, Ondrej Demel                    : Mk-CCSD
   Frank Weinhold                                : gennbo (NPA and NBO analysis)
   Christopher J. Cramer and Donald G. Truhlar   : smd solvation model
   Lars Goerigk                                  : TD-DFT with DH, B97 family of functionals
   V. Asgeirsson, H. Jonsson                     : NEB implementation
   FAccTs GmbH                                   : IRC, NEB, NEB-TS, Multilevel


 Your calculation uses the libint2 library for the computation of 2-el integrals
 For citations please refer to: http://libint.valeyev.net

 This ORCA versions uses:
   CBLAS   interface :  Fast vector & matrix operations
   LAPACKE interface :  Fast linear algebra routines
   SCALAPACK package :  Parallel linear algebra routines


----- Orbital basis set information -----
Your calculation utilizes the basis: aug-pc-4
   H, C-F              : F. Jensen, J. Chem. Phys. 115, 9113 (2001).
                         F. Jensen, J. Chem. Phys. 116, 7372 (2002).
                         F. Jensen, J. Chem. Phys. 117, 9234 (2002).
   Si-Cl               : F. Jensen, T. Helgaker, J. Chem. Phys. 121, 3463 (2004).
   He-B, Ne-Mg, Al, Ar : F. Jensen, J. Phys. Chem. A 111, 11198 (2007).
   K, Ca, Ga-Kr        : F. Jensen, J. Chem. Phys. 136, 094110 (2012).
   Sc-Zn               : F. Jensen, J. Chem. Phys. 138, 014107 (2013).

================================================================================
                                        WARNINGS
                       Please study these warnings very carefully!
================================================================================


INFO   : the flag for use of LIBINT has been found!

================================================================================
                                       INPUT FILE
================================================================================
NAME = so2_pbe.inp
|  1> !uks pbe nori aug-pc-4 grid7 nofinalgrid verytightscf
|  2> 
|  3> %maxcore 1500
|  4> 
|  5> %pal nprocs 1 end
|  6> 
|  7> %scf
|  8> 	maxiter 200
|  9> end
| 10> %elprop
| 11> 	dipole true
| 12> 	 polar 1
| 13> 	 maxiter 200
| 14> end
| 15> 
| 16> * xyz 0 1
| 17> S 0.0000 0.0000 0.0000
| 18> O 0.0000 1.2371 0.7215
| 19> O 0.0000 -1.2371 0.7215
| 20> *
| 21> 
| 22>                          ****END OF INPUT****
================================================================================

                       ****************************
                       * Single Point Calculation *
                       ****************************

---------------------------------
CARTESIAN COORDINATES (ANGSTROEM)
---------------------------------
  S      0.000000    0.000000    0.000000
  O      0.000000    1.237100    0.721500
  O      0.000000   -1.237100    0.721500

----------------------------
CARTESIAN COORDINATES (A.U.)
----------------------------
  NO LB      ZA    FRAG     MASS         X           Y           Z
   0 S    16.0000    0    32.060    0.000000    0.000000    0.000000
   1 O     8.0000    0    15.999    0.000000    2.337780    1.363437
   2 O     8.0000    0    15.999    0.000000   -2.337780    1.363437

--------------------------------
INTERNAL COORDINATES (ANGSTROEM)
--------------------------------
 S      0   0   0     0.000000000000     0.00000000     0.00000000
 O      1   0   0     1.432123828445     0.00000000     0.00000000
 O      1   2   0     1.432123828445   119.49691702     0.00000000

---------------------------
INTERNAL COORDINATES (A.U.)
---------------------------
 S      0   0   0     0.000000000000     0.00000000     0.00000000
 O      1   0   0     2.706321825624     0.00000000     0.00000000
 O      1   2   0     2.706321825624   119.49691702     0.00000000

---------------------
BASIS SET INFORMATION
---------------------
There are 2 groups of distinct atoms

 Group   1 Type S   : 44s27p7d4f3g2h contracted to 8s7p7d4f3g2h pattern {15121211111/111111111/1111111/1111/111/11}
 Group   2 Type O   : 27s12p7d4f3g2h contracted to 9s8p7d4f3g2h pattern {1191111111/51111111/1111111/1111/111/11}

Atom   0S    basis set group =>   1
Atom   1O    basis set group =>   2
Atom   2O    basis set group =>   2
------------------------------------------------------------------------------
                           ORCA GTO INTEGRAL CALCULATION
------------------------------------------------------------------------------

                         BASIS SET STATISTICS AND STARTUP INFO

 # of primitive gaussian shells          ...  197
 # of primitive gaussian functions       ...  587
 # of contracted shells                  ...   97
 # of contracted basis functions         ...  431
 Highest angular momentum                ...    5
 Maximum contraction depth               ...   15
 Integral package used                   ... LIBINT
 Integral threshhold            Thresh   ...  1.000e-12
 Primitive cut-off              TCut     ...  1.000e-14


------------------------------ INTEGRAL EVALUATION ----------------------------


 * One electron integrals 
 Pre-screening matrix                    ... done
 Shell pair data                         ... done (   0.002 sec)

-------------------------------------------------------------------------------
                                 ORCA SCF
-------------------------------------------------------------------------------

------------
SCF SETTINGS
------------
Hamiltonian:
 Density Functional     Method          .... DFT(GTOs)
 Exchange Functional    Exchange        .... PBE
   PBE kappa parameter   XKappa         ....  0.804000
   PBE mue parameter    XMuePBE         ....  0.219520
 Correlation Functional Correlation     .... PBE
   PBE beta parameter  CBetaPBE         ....  0.066725
 LDA part of GGA corr.  LDAOpt          .... PW91-LDA
 Gradients option       PostSCFGGA      .... off
   Density functional embedding theory  .... OFF
   NL short-range parameter             ....  6.400000


General Settings:
 Integral files         IntName         .... so2_pbe
 Hartree-Fock type      HFTyp           .... UHF
 Total Charge           Charge          ....    0
 Multiplicity           Mult            ....    1
 Number of Electrons    NEL             ....   32
 Basis Dimension        Dim             ....  431
 Nuclear Repulsion      ENuc            ....    108.2815311315 Eh

Convergence Acceleration:
 DIIS                   CNVDIIS         .... on
   Start iteration      DIISMaxIt       ....    12
   Startup error        DIISStart       ....  0.200000
   # of expansion vecs  DIISMaxEq       ....     5
   Bias factor          DIISBfac        ....   1.050
   Max. coefficient     DIISMaxC        ....  10.000
 Newton-Raphson         CNVNR           .... off
 SOSCF                  CNVSOSCF        .... off
 Level Shifting         CNVShift        .... on
   Level shift para.    LevelShift      ....    0.2500
   Turn off err/grad.   ShiftErr        ....    0.0010
 Zerner damping         CNVZerner       .... off
 Static damping         CNVDamp         .... on
   Fraction old density DampFac         ....    0.7000
   Max. Damping (<1)    DampMax         ....    0.9800
   Min. Damping (>=0)   DampMin         ....    0.0000
   Turn off err/grad.   DampErr         ....    0.1000
 Fernandez-Rico         CNVRico         .... off

SCF Procedure:
 Maximum # iterations   MaxIter         ....   200
 SCF integral mode      SCFMode         .... Direct
   Integral package                     .... LIBINT
 Reset frequency        DirectResetFreq ....    20
 Integral Threshold     Thresh          ....  1.000e-12 Eh
 Primitive CutOff       TCut            ....  1.000e-14 Eh

Convergence Tolerance:
 Convergence Check Mode ConvCheckMode   .... Total+1el-Energy
 Convergence forced     ConvForced      .... 0
 Energy Change          TolE            ....  1.000e-09 Eh
 1-El. energy change                    ....  1.000e-06 Eh
 DIIS Error             TolErr          ....  1.000e-08


Diagonalization of the overlap matrix:
Smallest eigenvalue                        ... 1.916e-06
Time for diagonalization                   ...    0.039 sec
Threshold for overlap eigenvalues          ... 1.000e-08
Number of eigenvalues below threshold      ... 0
Time for construction of square roots      ...    0.024 sec
Total time needed                          ...    0.065 sec

-------------------
DFT GRID GENERATION
-------------------

General Integration Accuracy     IntAcc      ...  5.670
Radial Grid Type                 RadialGrid  ... Gauss-Chebyshev
Angular Grid (max. acc.)         AngularGrid ... Lebedev-770
Angular grid pruning method      GridPruning ... 3 (G Style)
Weight generation scheme         WeightScheme... Becke
Basis function cutoff            BFCut       ...    1.0000e-12
Integration weight cutoff        WCut        ...    1.0000e-14
Grids for H and He will be reduced by one unit

# of grid points (after initial pruning)     ...  77212 (   0.0 sec)
# of grid points (after weights+screening)   ...  76518 (   0.0 sec)
nearest neighbour list constructed           ...    0.0 sec
Grid point re-assignment to atoms done       ...    0.0 sec
Grid point division into batches done        ...    1.7 sec
Reduced shell lists constructed in    2.8 sec

Total number of grid points                  ...    76518
Total number of batches                      ...     1197
Average number of points per batch           ...       63
Average number of grid points per atom       ...    25506
Average number of shells per batch           ...    68.38 (70.49%)
Average number of basis functions per batch  ...   314.79 (73.04%)
Average number of large shells per batch     ...    60.53 (88.53%)
Average number of large basis fcns per batch ...   279.40 (88.76%)
Maximum spatial batch extension              ...  16.79, 16.12, 14.83 au
Average spatial batch extension              ...   2.25,  2.09,  2.18 au

Time for grid setup =    2.848 sec

------------------------------
INITIAL GUESS: MODEL POTENTIAL
------------------------------
Loading Hartree-Fock densities                     ... done
Calculating cut-offs                               ... done
Setting up the integral package                    ... done
Initializing the effective Hamiltonian             ... done
Starting the Coulomb interaction                   ... done (   0.2 sec)
Reading the grid                                   ... done
Mapping shells                                     ... done
Starting the XC term evaluation                    ... done (   5.8 sec)
  promolecular density results
     # of electrons  =     31.999997764
     EX              =    -41.226136857
     EC              =     -1.170026293
     EX+EC           =    -42.396163151
Transforming the Hamiltonian                       ... done (   0.0 sec)
Diagonalizing the Hamiltonian                      ... done (   0.0 sec)
Back transforming the eigenvectors                 ... done (   0.0 sec)
Now organizing SCF variables                       ... done
                      ------------------
                      INITIAL GUESS DONE (   9.0 sec)
                      ------------------
--------------
SCF ITERATIONS
--------------
ITER       Energy         Delta-E        Max-DP      RMS-DP      [F,P]     Damp
               ***  Starting incremental Fock matrix formation  ***
  0   -548.2312573638   0.000000000000 0.03669838  0.00026214  0.2707036 0.7000
  1   -548.3422130421  -0.110955678322 0.01018850  0.00010909  0.0739323 0.7000
                               ***Turning on DIIS***
  2   -548.3604804685  -0.018267426403 0.02891463  0.00014628  0.0305158 0.0000
  3   -548.4286928418  -0.068212373324 0.00727861  0.00008588  0.0295522 0.0000
  4   -548.4283167740   0.000376067796 0.00633900  0.00003930  0.0365011 0.0000
  5   -548.4309708554  -0.002654081394 0.00190341  0.00001499  0.0099505 0.0000
  6   -548.4313067248  -0.000335869343 0.00032390  0.00000499  0.0032870 0.0000
  7   -548.4313353871  -0.000028662341 0.00014910  0.00000187  0.0011798 0.0000
  8   -548.4313387869  -0.000003399751 0.00009370  0.00000130  0.0004359 0.0000
  9   -548.4313392616  -0.000000474734 0.00004541  0.00000021  0.0000634 0.0000
 10   -548.4313392712  -0.000000009582 0.00001781  0.00000012  0.0000203 0.0000
 11   -548.4313392733  -0.000000002096 0.00000831  0.00000009  0.0000027 0.0000
 12   -548.4313392733  -0.000000000042 0.00000571  0.00000006  0.0000010 0.0000
 13   -548.4313392733  -0.000000000028 0.00000793  0.00000009  0.0000002 0.0000
 14   -548.4313392733  -0.000000000004 0.00004194  0.00000022  0.0000000 0.0000
                 **** Energy Check signals convergence ****

               *****************************************************
               *                     SUCCESS                       *
               *           SCF CONVERGED AFTER  15 CYCLES          *
               *****************************************************


----------------
TOTAL SCF ENERGY
----------------

Total Energy       :         -548.43133927 Eh          -14923.57544 eV

Components:
Nuclear Repulsion  :          108.28153113 Eh            2946.49026 eV
Electronic Energy  :         -656.71287040 Eh          -17870.06570 eV
One Electron Energy:         -971.04217302 Eh          -26423.40087 eV
Two Electron Energy:          314.32930262 Eh            8553.33517 eV

Virial components:
Potential Energy   :        -1096.14150448 Eh          -29827.52674 eV
Kinetic Energy     :          547.71016521 Eh           14903.95130 eV
Virial Ratio       :            2.00131671


DFT components:
N(Alpha)           :       15.999999473669 electrons
N(Beta)            :       15.999999473669 electrons
N(Total)           :       31.999998947338 electrons
E(X)               :      -41.401942198864 Eh       
E(C)               :       -1.170863777950 Eh       
E(XC)              :      -42.572805976814 Eh       
DFET-embed. en.    :        0.000000000000 Eh       

---------------
SCF CONVERGENCE
---------------

  Last Energy change         ...    1.1369e-13  Tolerance :   1.0000e-09
  Last MAX-Density change    ...    8.7470e-06  Tolerance :   1.0000e-08
  Last RMS-Density change    ...    5.4519e-08  Tolerance :   1.0000e-09
  Last DIIS Error            ...    1.3559e-08  Tolerance :   1.0000e-08

             **** THE GBW FILE WAS UPDATED (so2_pbe.gbw) ****
             **** DENSITY FILE WAS UPDATED (so2_pbe.scfp.tmp) ****
             **** ENERGY FILE WAS UPDATED (so2_pbe.en.tmp) ****
----------------------
UHF SPIN CONTAMINATION
----------------------

Warning: in a DFT calculation there is little theoretical justification to 
         calculate <S**2> as in Hartree-Fock theory. We will do it anyways
         but you should keep in mind that the values have only limited relevance

Expectation value of <S**2>     :     0.000000
Ideal value S*(S+1) for S=0.0   :     0.000000
Deviation                       :     0.000000

----------------
ORBITAL ENERGIES
----------------
                 SPIN UP ORBITALS
  NO   OCC          E(Eh)            E(eV) 
   0   1.0000     -88.197195     -2399.9677 
   1   1.0000     -18.811293      -511.8813 
   2   1.0000     -18.811293      -511.8813 
   3   1.0000      -7.818161      -212.7430 
   4   1.0000      -5.839806      -158.9092 
   5   1.0000      -5.836503      -158.8193 
   6   1.0000      -5.832912      -158.7216 
   7   1.0000      -1.063439       -28.9377 
   8   1.0000      -0.973916       -26.5016 
   9   1.0000      -0.578525       -15.7425 
  10   1.0000      -0.456049       -12.4097 
  11   1.0000      -0.446129       -12.1398 
  12   1.0000      -0.445690       -12.1278 
  13   1.0000      -0.347783        -9.4637 
  14   1.0000      -0.323181        -8.7942 
  15   1.0000      -0.296634        -8.0718 
  16   0.0000      -0.162071        -4.4102 
  17   0.0000      -0.023716        -0.6453 
  18   0.0000      -0.001502        -0.0409 
  19   0.0000       0.002206         0.0600 
  20   0.0000       0.013890         0.3780 
  21   0.0000       0.028346         0.7713 
  22   0.0000       0.041653         1.1334 
  23   0.0000       0.047624         1.2959 
  24   0.0000       0.050428         1.3722 
  25   0.0000       0.053896         1.4666 
  26   0.0000       0.055892         1.5209 
  27   0.0000       0.056008         1.5241 
  28   0.0000       0.081606         2.2206 
  29   0.0000       0.082287         2.2391 
  30   0.0000       0.095108         2.5880 
  31   0.0000       0.101648         2.7660 
  32   0.0000       0.114053         3.1035 
  33   0.0000       0.117188         3.1888 
  34   0.0000       0.128719         3.5026 
  35   0.0000       0.129774         3.5313 
  36   0.0000       0.135997         3.7007 
  37   0.0000       0.149245         4.0612 
  38   0.0000       0.151093         4.1114 
  39   0.0000       0.166694         4.5360 
  40   0.0000       0.182483         4.9656 
  41   0.0000       0.187457         5.1010 
  42   0.0000       0.193551         5.2668 
  43   0.0000       0.199481         5.4282 
  44   0.0000       0.207582         5.6486 
  45   0.0000       0.221955         6.0397 
  46   0.0000       0.226985         6.1766 
  47   0.0000       0.232947         6.3388 
  48   0.0000       0.241180         6.5628 
  49   0.0000       0.246461         6.7066 
  50   0.0000       0.252382         6.8677 
  51   0.0000       0.254628         6.9288 
  52   0.0000       0.258599         7.0368 
  53   0.0000       0.263114         7.1597 
  54   0.0000       0.264581         7.1996 
  55   0.0000       0.272835         7.4242 
  56   0.0000       0.277076         7.5396 
  57   0.0000       0.277864         7.5611 
  58   0.0000       0.296374         8.0647 
  59   0.0000       0.319051         8.6818 
  60   0.0000       0.329824         8.9750 
  61   0.0000       0.341402         9.2900 
  62   0.0000       0.341864         9.3026 
  63   0.0000       0.350343         9.5333 
  64   0.0000       0.361189         9.8285 
  65   0.0000       0.386450        10.5158 
  66   0.0000       0.387495        10.5443 
  67   0.0000       0.402722        10.9586 
  68   0.0000       0.422744        11.5034 
  69   0.0000       0.429557        11.6888 
  70   0.0000       0.433988        11.8094 
  71   0.0000       0.435777        11.8581 
  72   0.0000       0.440600        11.9893 
  73   0.0000       0.444486        12.0951 
  74   0.0000       0.447605        12.1799 
  75   0.0000       0.454379        12.3643 
  76   0.0000       0.457721        12.4552 
  77   0.0000       0.469432        12.7739 
  78   0.0000       0.470357        12.7991 
  79   0.0000       0.471332        12.8256 
  80   0.0000       0.483465        13.1558 
  81   0.0000       0.486377        13.2350 
  82   0.0000       0.498009        13.5515 
  83   0.0000       0.511772        13.9260 
  84   0.0000       0.513073        13.9614 
  85   0.0000       0.520359        14.1597 
  86   0.0000       0.522543        14.2191 
  87   0.0000       0.538374        14.6499 
  88   0.0000       0.551213        14.9993 
  89   0.0000       0.559367        15.2212 
  90   0.0000       0.565125        15.3778 
  91   0.0000       0.575625        15.6635 
  92   0.0000       0.585118        15.9219 
  93   0.0000       0.592402        16.1201 
  94   0.0000       0.599243        16.3062 
  95   0.0000       0.605469        16.4757 
  96   0.0000       0.621383        16.9087 
  97   0.0000       0.634480        17.2651 
  98   0.0000       0.647560        17.6210 
  99   0.0000       0.651386        17.7251 
 100   0.0000       0.654457        17.8087 
 101   0.0000       0.666832        18.1454 
 102   0.0000       0.671623        18.2758 
 103   0.0000       0.684706        18.6318 
 104   0.0000       0.685841        18.6627 
 105   0.0000       0.689894        18.7730 
 106   0.0000       0.699316        19.0293 
 107   0.0000       0.737537        20.0694 
 108   0.0000       0.742303        20.1991 
 109   0.0000       0.746236        20.3061 
 110   0.0000       0.757575        20.6147 
 111   0.0000       0.764575        20.8051 
 112   0.0000       0.781367        21.2621 
 113   0.0000       0.782878        21.3032 
 114   0.0000       0.802084        21.8258 
 115   0.0000       0.802950        21.8494 
 116   0.0000       0.812510        22.1095 
 117   0.0000       0.833178        22.6719 
 118   0.0000       0.845223        22.9997 
 119   0.0000       0.849748        23.1228 
 120   0.0000       0.850985        23.1565 
 121   0.0000       0.862339        23.4654 
 122   0.0000       0.868772        23.6405 
 123   0.0000       0.872351        23.7379 
 124   0.0000       0.881822        23.9956 
 125   0.0000       0.881901        23.9978 
 126   0.0000       0.901131        24.5210 
 127   0.0000       0.901659        24.5354 
 128   0.0000       0.902217        24.5506 
 129   0.0000       0.911888        24.8137 
 130   0.0000       0.920014        25.0349 
 131   0.0000       0.934661        25.4334 
 132   0.0000       0.963234        26.2109 
 133   0.0000       0.967027        26.3142 
 134   0.0000       0.980252        26.6740 
 135   0.0000       0.994254        27.0550 
 136   0.0000       0.999265        27.1914 
 137   0.0000       0.999861        27.2076 
 138   0.0000       1.003870        27.3167 
 139   0.0000       1.004953        27.3462 
 140   0.0000       1.022485        27.8232 
 141   0.0000       1.033099        28.1120 
 142   0.0000       1.041420        28.3385 
 143   0.0000       1.042752        28.3747 
 144   0.0000       1.043148        28.3855 
 145   0.0000       1.054571        28.6963 
 146   0.0000       1.083983        29.4967 
 147   0.0000       1.087439        29.5907 
 148   0.0000       1.089541        29.6479 
 149   0.0000       1.102507        30.0007 
 150   0.0000       1.111369        30.2419 
 151   0.0000       1.115793        30.3623 
 152   0.0000       1.119397        30.4603 
 153   0.0000       1.121447        30.5161 
 154   0.0000       1.146026        31.1849 
 155   0.0000       1.149059        31.2675 
 156   0.0000       1.158202        31.5163 
 157   0.0000       1.194596        32.5066 
 158   0.0000       1.195994        32.5447 
 159   0.0000       1.200217        32.6596 
 160   0.0000       1.204267        32.7698 
 161   0.0000       1.230459        33.4825 
 162   0.0000       1.242380        33.8069 
 163   0.0000       1.266235        34.4560 
 164   0.0000       1.308300        35.6007 
 165   0.0000       1.313623        35.7455 
 166   0.0000       1.340642        36.4807 
 167   0.0000       1.357516        36.9399 
 168   0.0000       1.406781        38.2805 
 169   0.0000       1.446043        39.3488 
 170   0.0000       1.448325        39.4109 
 171   0.0000       1.537616        41.8407 
 172   0.0000       1.545753        42.0621 
 173   0.0000       1.561132        42.4806 
 174   0.0000       1.620376        44.0927 
 175   0.0000       1.641168        44.6585 
 176   0.0000       1.651537        44.9406 
 177   0.0000       1.666128        45.3376 
 178   0.0000       1.683107        45.7997 
 179   0.0000       1.764222        48.0069 
 180   0.0000       1.777317        48.3633 
 181   0.0000       1.777407        48.3657 
 182   0.0000       1.786552        48.6146 
 183   0.0000       1.851533        50.3828 
 184   0.0000       1.876044        51.0498 
 185   0.0000       1.876346        51.0580 
 186   0.0000       1.897056        51.6215 
 187   0.0000       1.933053        52.6010 
 188   0.0000       1.934489        52.6401 
 189   0.0000       1.971585        53.6496 
 190   0.0000       1.977740        53.8170 
 191   0.0000       1.986002        54.0419 
 192   0.0000       2.005081        54.5610 
 193   0.0000       2.088081        56.8196 
 194   0.0000       2.099588        57.1327 
 195   0.0000       2.100356        57.1536 
 196   0.0000       2.132469        58.0274 
 197   0.0000       2.140338        58.2416 
 198   0.0000       2.169811        59.0436 
 199   0.0000       2.226156        60.5768 
 200   0.0000       2.248667        61.1893 
 201   0.0000       2.286251        62.2121 
 202   0.0000       2.319178        63.1081 
 203   0.0000       2.360906        64.2435 
 204   0.0000       2.417297        65.7780 
 205   0.0000       2.439607        66.3851 
 206   0.0000       2.483940        67.5914 
 207   0.0000       2.486903        67.6721 
 208   0.0000       2.644952        71.9728 
 209   0.0000       2.664014        72.4915 
 210   0.0000       2.680309        72.9349 
 211   0.0000       2.741124        74.5898 
 212   0.0000       2.761094        75.1332 
 213   0.0000       2.812050        76.5198 
 214   0.0000       2.836522        77.1857 
 215   0.0000       3.012869        81.9843 
 216   0.0000       3.132899        85.2505 
 217   0.0000       3.146506        85.6208 
 218   0.0000       3.276744        89.1647 
 219   0.0000       3.309175        90.0472 
 220   0.0000       3.350450        91.1704 
 221   0.0000       3.354008        91.2672 
 222   0.0000       3.417450        92.9935 
 223   0.0000       3.428077        93.2827 
 224   0.0000       3.446245        93.7771 
 225   0.0000       3.572411        97.2102 
 226   0.0000       3.573572        97.2418 
 227   0.0000       3.602686        98.0341 
 228   0.0000       3.650130        99.3251 
 229   0.0000       3.711510       100.9953 
 230   0.0000       3.754998       102.1787 
 231   0.0000       3.779743       102.8520 
 232   0.0000       3.797811       103.3437 
 233   0.0000       4.010822       109.1400 
 234   0.0000       4.058730       110.4437 
 235   0.0000       4.088693       111.2590 
 236   0.0000       4.093351       111.3857 
 237   0.0000       4.109726       111.8313 
 238   0.0000       4.162426       113.2654 
 239   0.0000       4.174855       113.6036 
 240   0.0000       4.205678       114.4423 
 241   0.0000       4.220267       114.8393 
 242   0.0000       4.313214       117.3685 
 243   0.0000       4.346380       118.2710 
 244   0.0000       4.437396       120.7477 
 245   0.0000       4.448524       121.0505 
 246   0.0000       4.457205       121.2867 
 247   0.0000       4.537880       123.4820 
 248   0.0000       4.545494       123.6892 
 249   0.0000       4.660379       126.8154 
 250   0.0000       4.816034       131.0510 
 251   0.0000       4.851954       132.0284 
 252   0.0000       4.863788       132.3504 
 253   0.0000       4.946379       134.5978 
 254   0.0000       4.975975       135.4032 
 255   0.0000       4.983780       135.6155 
 256   0.0000       5.031222       136.9065 
 257   0.0000       5.167181       140.6061 
 258   0.0000       5.167472       140.6141 
 259   0.0000       5.171358       140.7198 
 260   0.0000       5.206594       141.6786 
 261   0.0000       5.268712       143.3689 
 262   0.0000       5.322389       144.8296 
 263   0.0000       5.366946       146.0420 
 264   0.0000       5.369206       146.1035 
 265   0.0000       5.380125       146.4006 
 266   0.0000       5.498722       149.6278 
 267   0.0000       5.575834       151.7262 
 268   0.0000       5.603157       152.4696 
 269   0.0000       5.617346       152.8558 
 270   0.0000       5.704277       155.2213 
 271   0.0000       5.740041       156.1945 
 272   0.0000       5.802055       157.8819 
 273   0.0000       5.817754       158.3091 
 274   0.0000       5.844641       159.0408 
 275   0.0000       5.901493       160.5878 
 276   0.0000       5.923508       161.1869 
 277   0.0000       5.955629       162.0609 
 278   0.0000       5.983248       162.8124 
 279   0.0000       6.009936       163.5387 
 280   0.0000       6.192782       168.5142 
 281   0.0000       6.317502       171.9080 
 282   0.0000       6.438738       175.2070 
 283   0.0000       6.476977       176.2475 
 284   0.0000       6.567670       178.7154 
 285   0.0000       6.650679       180.9742 
 286   0.0000       6.705048       182.4536 
 287   0.0000       6.757761       183.8880 
 288   0.0000       6.798006       184.9832 
 289   0.0000       7.173630       195.2044 
 290   0.0000       7.296121       198.5375 
 291   0.0000       7.385633       200.9733 
 292   0.0000       7.403326       201.4547 
 293   0.0000       7.516169       204.5254 
 294   0.0000       7.551564       205.4885 
 295   0.0000       7.711676       209.8454 
 296   0.0000       7.808583       212.4823 
 297   0.0000       7.843076       213.4209 
 298   0.0000       7.868558       214.1144 
 299   0.0000       7.883312       214.5158 
 300   0.0000       8.168443       222.2746 
 301   0.0000       8.169509       222.3037 
 302   0.0000       8.197589       223.0677 
 303   0.0000       8.219456       223.6628 
 304   0.0000       8.426468       229.2958 
 305   0.0000       8.702893       236.8178 
 306   0.0000       8.782527       238.9847 
 307   0.0000       8.811299       239.7676 
 308   0.0000       8.888536       241.8694 
 309   0.0000       9.287284       252.7198 
 310   0.0000       9.296856       252.9803 
 311   0.0000       9.364663       254.8254 
 312   0.0000       9.393275       255.6040 
 313   0.0000       9.435342       256.7487 
 314   0.0000       9.469053       257.6660 
 315   0.0000       9.738427       264.9961 
 316   0.0000       9.741460       265.0786 
 317   0.0000       9.742177       265.0981 
 318   0.0000       9.995290       271.9857 
 319   0.0000      10.326375       280.9949 
 320   0.0000      10.520809       286.2858 
 321   0.0000      10.749793       292.5167 
 322   0.0000      10.788248       293.5631 
 323   0.0000      10.911960       296.9295 
 324   0.0000      11.001959       299.3785 
 325   0.0000      11.012557       299.6669 
 326   0.0000      11.079327       301.4838 
 327   0.0000      11.503574       313.0282 
 328   0.0000      11.611673       315.9697 
 329   0.0000      11.788531       320.7823 
 330   0.0000      11.904044       323.9255 
 331   0.0000      11.977256       325.9177 
 332   0.0000      11.990254       326.2714 
 333   0.0000      11.991545       326.3065 
 334   0.0000      11.992259       326.3260 
 335   0.0000      11.992857       326.3422 
 336   0.0000      12.001207       326.5694 
 337   0.0000      12.009633       326.7987 
 338   0.0000      12.013292       326.8983 
 339   0.0000      12.024620       327.2065 
 340   0.0000      12.094443       329.1065 
 341   0.0000      12.164901       331.0238 
 342   0.0000      12.177486       331.3663 
 343   0.0000      12.180267       331.4419 
 344   0.0000      12.183598       331.5326 
 345   0.0000      12.241603       333.1109 
 346   0.0000      12.311648       335.0170 
 347   0.0000      12.428099       338.1858 
 348   0.0000      12.429136       338.2140 
 349   0.0000      12.477224       339.5225 
 350   0.0000      12.489403       339.8539 
 351   0.0000      12.510847       340.4374 
 352   0.0000      12.512318       340.4775 
 353   0.0000      12.526194       340.8551 
 354   0.0000      12.585857       342.4786 
 355   0.0000      12.635453       343.8282 
 356   0.0000      12.643513       344.0475 
 357   0.0000      12.644139       344.0645 
 358   0.0000      12.646021       344.1157 
 359   0.0000      12.661015       344.5237 
 360   0.0000      12.952276       352.4493 
 361   0.0000      13.007552       353.9535 
 362   0.0000      13.053723       355.2099 
 363   0.0000      13.191050       358.9467 
 364   0.0000      13.325154       362.5959 
 365   0.0000      13.510233       367.6321 
 366   0.0000      14.043610       382.1461 
 367   0.0000      14.060865       382.6156 
 368   0.0000      14.205383       386.5481 
 369   0.0000      14.435424       392.8079 
 370   0.0000      15.374271       418.3552 
 371   0.0000      15.491257       421.5385 
 372   0.0000      16.938088       460.9088 
 373   0.0000      16.940913       460.9857 
 374   0.0000      16.941030       460.9889 
 375   0.0000      16.950026       461.2337 
 376   0.0000      16.958757       461.4712 
 377   0.0000      17.059812       464.2211 
 378   0.0000      17.083072       464.8540 
 379   0.0000      17.135929       466.2923 
 380   0.0000      17.156726       466.8583 
 381   0.0000      17.183877       467.5971 
 382   0.0000      17.239767       469.1179 
 383   0.0000      17.715341       482.0589 
 384   0.0000      17.729464       482.4432 
 385   0.0000      17.789252       484.0702 
 386   0.0000      17.844100       485.5626 
 387   0.0000      18.299854       497.9643 
 388   0.0000      18.374779       500.0032 
 389   0.0000      18.498312       503.3647 
 390   0.0000      18.546147       504.6663 
 391   0.0000      18.626997       506.8664 
 392   0.0000      18.644450       507.3413 
 393   0.0000      19.182444       521.9808 
 394   0.0000      19.361132       526.8432 
 395   0.0000      22.874058       622.4348 
 396   0.0000      22.930933       623.9824 
 397   0.0000      22.933286       624.0464 
 398   0.0000      22.979470       625.3032 
 399   0.0000      23.256106       632.8308 
 400   0.0000      23.270120       633.2122 
 401   0.0000      23.313257       634.3860 
 402   0.0000      23.463275       638.4682 
 403   0.0000      24.271587       660.4635 
 404   0.0000      24.419172       664.4795 
 405   0.0000      29.753924       809.6454 
 406   0.0000      29.867818       812.7446 
 407   0.0000      31.792282       865.1120 
 408   0.0000      31.864904       867.0881 
 409   0.0000      31.881833       867.5488 
 410   0.0000      31.944382       869.2508 
 411   0.0000      32.871038       894.4664 
 412   0.0000      33.264829       905.1820 
 413   0.0000      35.093373       954.9392 
 414   0.0000      62.368025      1697.1202 
 415   0.0000      62.442095      1699.1358 
 416   0.0000      62.512501      1701.0516 
 417   0.0000      63.173243      1719.0313 
 418   0.0000      63.315835      1722.9115 
 419   0.0000      66.476813      1808.9261 
 420   0.0000      66.516207      1809.9980 
 421   0.0000      66.518946      1810.0725 
 422   0.0000      66.546587      1810.8247 
 423   0.0000      66.730862      1815.8391 
 424   0.0000      66.742801      1816.1639 
 425   0.0000      66.764610      1816.7574 
 426   0.0000      66.893640      1820.2685 
 427   0.0000      67.511741      1837.0879 
 428   0.0000      67.543811      1837.9605 
 429   0.0000     142.583149      3879.8847 
 430   0.0000     142.796312      3885.6852 

                 SPIN DOWN ORBITALS
  NO   OCC          E(Eh)            E(eV) 
   0   1.0000     -88.197195     -2399.9677 
   1   1.0000     -18.811293      -511.8813 
   2   1.0000     -18.811293      -511.8813 
   3   1.0000      -7.818161      -212.7430 
   4   1.0000      -5.839806      -158.9092 
   5   1.0000      -5.836503      -158.8193 
   6   1.0000      -5.832912      -158.7216 
   7   1.0000      -1.063439       -28.9377 
   8   1.0000      -0.973916       -26.5016 
   9   1.0000      -0.578525       -15.7425 
  10   1.0000      -0.456049       -12.4097 
  11   1.0000      -0.446129       -12.1398 
  12   1.0000      -0.445690       -12.1278 
  13   1.0000      -0.347783        -9.4637 
  14   1.0000      -0.323181        -8.7942 
  15   1.0000      -0.296634        -8.0718 
  16   0.0000      -0.162071        -4.4102 
  17   0.0000      -0.023716        -0.6453 
  18   0.0000      -0.001502        -0.0409 
  19   0.0000       0.002206         0.0600 
  20   0.0000       0.013890         0.3780 
  21   0.0000       0.028346         0.7713 
  22   0.0000       0.041653         1.1334 
  23   0.0000       0.047624         1.2959 
  24   0.0000       0.050428         1.3722 
  25   0.0000       0.053896         1.4666 
  26   0.0000       0.055892         1.5209 
  27   0.0000       0.056008         1.5241 
  28   0.0000       0.081606         2.2206 
  29   0.0000       0.082287         2.2391 
  30   0.0000       0.095108         2.5880 
  31   0.0000       0.101648         2.7660 
  32   0.0000       0.114053         3.1035 
  33   0.0000       0.117188         3.1888 
  34   0.0000       0.128719         3.5026 
  35   0.0000       0.129774         3.5313 
  36   0.0000       0.135997         3.7007 
  37   0.0000       0.149245         4.0612 
  38   0.0000       0.151093         4.1114 
  39   0.0000       0.166694         4.5360 
  40   0.0000       0.182483         4.9656 
  41   0.0000       0.187457         5.1010 
  42   0.0000       0.193551         5.2668 
  43   0.0000       0.199481         5.4282 
  44   0.0000       0.207582         5.6486 
  45   0.0000       0.221955         6.0397 
  46   0.0000       0.226985         6.1766 
  47   0.0000       0.232947         6.3388 
  48   0.0000       0.241180         6.5628 
  49   0.0000       0.246461         6.7066 
  50   0.0000       0.252382         6.8677 
  51   0.0000       0.254628         6.9288 
  52   0.0000       0.258599         7.0368 
  53   0.0000       0.263114         7.1597 
  54   0.0000       0.264581         7.1996 
  55   0.0000       0.272835         7.4242 
  56   0.0000       0.277076         7.5396 
  57   0.0000       0.277864         7.5611 
  58   0.0000       0.296374         8.0647 
  59   0.0000       0.319051         8.6818 
  60   0.0000       0.329824         8.9750 
  61   0.0000       0.341402         9.2900 
  62   0.0000       0.341864         9.3026 
  63   0.0000       0.350343         9.5333 
  64   0.0000       0.361189         9.8285 
  65   0.0000       0.386450        10.5158 
  66   0.0000       0.387495        10.5443 
  67   0.0000       0.402722        10.9586 
  68   0.0000       0.422744        11.5034 
  69   0.0000       0.429557        11.6888 
  70   0.0000       0.433988        11.8094 
  71   0.0000       0.435777        11.8581 
  72   0.0000       0.440600        11.9893 
  73   0.0000       0.444486        12.0951 
  74   0.0000       0.447605        12.1799 
  75   0.0000       0.454379        12.3643 
  76   0.0000       0.457721        12.4552 
  77   0.0000       0.469432        12.7739 
  78   0.0000       0.470357        12.7991 
  79   0.0000       0.471332        12.8256 
  80   0.0000       0.483465        13.1558 
  81   0.0000       0.486377        13.2350 
  82   0.0000       0.498009        13.5515 
  83   0.0000       0.511772        13.9260 
  84   0.0000       0.513073        13.9614 
  85   0.0000       0.520359        14.1597 
  86   0.0000       0.522543        14.2191 
  87   0.0000       0.538374        14.6499 
  88   0.0000       0.551213        14.9993 
  89   0.0000       0.559367        15.2212 
  90   0.0000       0.565125        15.3778 
  91   0.0000       0.575625        15.6635 
  92   0.0000       0.585118        15.9219 
  93   0.0000       0.592402        16.1201 
  94   0.0000       0.599243        16.3062 
  95   0.0000       0.605469        16.4757 
  96   0.0000       0.621383        16.9087 
  97   0.0000       0.634480        17.2651 
  98   0.0000       0.647560        17.6210 
  99   0.0000       0.651386        17.7251 
 100   0.0000       0.654457        17.8087 
 101   0.0000       0.666832        18.1454 
 102   0.0000       0.671623        18.2758 
 103   0.0000       0.684706        18.6318 
 104   0.0000       0.685841        18.6627 
 105   0.0000       0.689894        18.7730 
 106   0.0000       0.699316        19.0293 
 107   0.0000       0.737537        20.0694 
 108   0.0000       0.742303        20.1991 
 109   0.0000       0.746236        20.3061 
 110   0.0000       0.757575        20.6147 
 111   0.0000       0.764575        20.8051 
 112   0.0000       0.781367        21.2621 
 113   0.0000       0.782878        21.3032 
 114   0.0000       0.802084        21.8258 
 115   0.0000       0.802950        21.8494 
 116   0.0000       0.812510        22.1095 
 117   0.0000       0.833178        22.6719 
 118   0.0000       0.845223        22.9997 
 119   0.0000       0.849748        23.1228 
 120   0.0000       0.850985        23.1565 
 121   0.0000       0.862339        23.4654 
 122   0.0000       0.868772        23.6405 
 123   0.0000       0.872351        23.7379 
 124   0.0000       0.881822        23.9956 
 125   0.0000       0.881901        23.9978 
 126   0.0000       0.901131        24.5210 
 127   0.0000       0.901659        24.5354 
 128   0.0000       0.902217        24.5506 
 129   0.0000       0.911888        24.8137 
 130   0.0000       0.920014        25.0349 
 131   0.0000       0.934661        25.4334 
 132   0.0000       0.963234        26.2109 
 133   0.0000       0.967027        26.3142 
 134   0.0000       0.980252        26.6740 
 135   0.0000       0.994254        27.0550 
 136   0.0000       0.999265        27.1914 
 137   0.0000       0.999861        27.2076 
 138   0.0000       1.003870        27.3167 
 139   0.0000       1.004953        27.3462 
 140   0.0000       1.022485        27.8232 
 141   0.0000       1.033099        28.1120 
 142   0.0000       1.041420        28.3385 
 143   0.0000       1.042752        28.3747 
 144   0.0000       1.043148        28.3855 
 145   0.0000       1.054571        28.6963 
 146   0.0000       1.083983        29.4967 
 147   0.0000       1.087439        29.5907 
 148   0.0000       1.089541        29.6479 
 149   0.0000       1.102507        30.0007 
 150   0.0000       1.111369        30.2419 
 151   0.0000       1.115793        30.3623 
 152   0.0000       1.119397        30.4603 
 153   0.0000       1.121447        30.5161 
 154   0.0000       1.146026        31.1849 
 155   0.0000       1.149059        31.2675 
 156   0.0000       1.158202        31.5163 
 157   0.0000       1.194596        32.5066 
 158   0.0000       1.195994        32.5447 
 159   0.0000       1.200217        32.6596 
 160   0.0000       1.204267        32.7698 
 161   0.0000       1.230459        33.4825 
 162   0.0000       1.242380        33.8069 
 163   0.0000       1.266235        34.4560 
 164   0.0000       1.308300        35.6007 
 165   0.0000       1.313623        35.7455 
 166   0.0000       1.340642        36.4807 
 167   0.0000       1.357516        36.9399 
 168   0.0000       1.406781        38.2805 
 169   0.0000       1.446043        39.3488 
 170   0.0000       1.448325        39.4109 
 171   0.0000       1.537616        41.8407 
 172   0.0000       1.545753        42.0621 
 173   0.0000       1.561132        42.4806 
 174   0.0000       1.620376        44.0927 
 175   0.0000       1.641168        44.6585 
 176   0.0000       1.651537        44.9406 
 177   0.0000       1.666128        45.3376 
 178   0.0000       1.683107        45.7997 
 179   0.0000       1.764222        48.0069 
 180   0.0000       1.777317        48.3633 
 181   0.0000       1.777407        48.3657 
 182   0.0000       1.786552        48.6146 
 183   0.0000       1.851533        50.3828 
 184   0.0000       1.876044        51.0498 
 185   0.0000       1.876346        51.0580 
 186   0.0000       1.897056        51.6215 
 187   0.0000       1.933053        52.6010 
 188   0.0000       1.934489        52.6401 
 189   0.0000       1.971585        53.6496 
 190   0.0000       1.977740        53.8170 
 191   0.0000       1.986002        54.0419 
 192   0.0000       2.005081        54.5610 
 193   0.0000       2.088081        56.8196 
 194   0.0000       2.099588        57.1327 
 195   0.0000       2.100356        57.1536 
 196   0.0000       2.132469        58.0274 
 197   0.0000       2.140338        58.2416 
 198   0.0000       2.169811        59.0436 
 199   0.0000       2.226156        60.5768 
 200   0.0000       2.248667        61.1893 
 201   0.0000       2.286251        62.2121 
 202   0.0000       2.319178        63.1081 
 203   0.0000       2.360906        64.2435 
 204   0.0000       2.417297        65.7780 
 205   0.0000       2.439607        66.3851 
 206   0.0000       2.483940        67.5914 
 207   0.0000       2.486903        67.6721 
 208   0.0000       2.644952        71.9728 
 209   0.0000       2.664014        72.4915 
 210   0.0000       2.680309        72.9349 
 211   0.0000       2.741124        74.5898 
 212   0.0000       2.761094        75.1332 
 213   0.0000       2.812050        76.5198 
 214   0.0000       2.836522        77.1857 
 215   0.0000       3.012869        81.9843 
 216   0.0000       3.132899        85.2505 
 217   0.0000       3.146506        85.6208 
 218   0.0000       3.276744        89.1647 
 219   0.0000       3.309175        90.0472 
 220   0.0000       3.350450        91.1704 
 221   0.0000       3.354008        91.2672 
 222   0.0000       3.417450        92.9935 
 223   0.0000       3.428077        93.2827 
 224   0.0000       3.446245        93.7771 
 225   0.0000       3.572411        97.2102 
 226   0.0000       3.573572        97.2418 
 227   0.0000       3.602686        98.0341 
 228   0.0000       3.650130        99.3251 
 229   0.0000       3.711510       100.9953 
 230   0.0000       3.754998       102.1787 
 231   0.0000       3.779743       102.8520 
 232   0.0000       3.797811       103.3437 
 233   0.0000       4.010822       109.1400 
 234   0.0000       4.058730       110.4437 
 235   0.0000       4.088693       111.2590 
 236   0.0000       4.093351       111.3857 
 237   0.0000       4.109726       111.8313 
 238   0.0000       4.162426       113.2654 
 239   0.0000       4.174855       113.6036 
 240   0.0000       4.205678       114.4423 
 241   0.0000       4.220267       114.8393 
 242   0.0000       4.313214       117.3685 
 243   0.0000       4.346380       118.2710 
 244   0.0000       4.437396       120.7477 
 245   0.0000       4.448524       121.0505 
 246   0.0000       4.457205       121.2867 
 247   0.0000       4.537880       123.4820 
 248   0.0000       4.545494       123.6892 
 249   0.0000       4.660379       126.8154 
 250   0.0000       4.816034       131.0510 
 251   0.0000       4.851954       132.0284 
 252   0.0000       4.863788       132.3504 
 253   0.0000       4.946379       134.5978 
 254   0.0000       4.975975       135.4032 
 255   0.0000       4.983780       135.6155 
 256   0.0000       5.031222       136.9065 
 257   0.0000       5.167181       140.6061 
 258   0.0000       5.167472       140.6141 
 259   0.0000       5.171358       140.7198 
 260   0.0000       5.206594       141.6786 
 261   0.0000       5.268712       143.3689 
 262   0.0000       5.322389       144.8296 
 263   0.0000       5.366946       146.0420 
 264   0.0000       5.369206       146.1035 
 265   0.0000       5.380125       146.4006 
 266   0.0000       5.498722       149.6278 
 267   0.0000       5.575834       151.7262 
 268   0.0000       5.603157       152.4696 
 269   0.0000       5.617346       152.8558 
 270   0.0000       5.704277       155.2213 
 271   0.0000       5.740041       156.1945 
 272   0.0000       5.802055       157.8819 
 273   0.0000       5.817754       158.3091 
 274   0.0000       5.844641       159.0408 
 275   0.0000       5.901493       160.5878 
 276   0.0000       5.923508       161.1869 
 277   0.0000       5.955629       162.0609 
 278   0.0000       5.983248       162.8124 
 279   0.0000       6.009936       163.5387 
 280   0.0000       6.192782       168.5142 
 281   0.0000       6.317502       171.9080 
 282   0.0000       6.438738       175.2070 
 283   0.0000       6.476977       176.2475 
 284   0.0000       6.567670       178.7154 
 285   0.0000       6.650679       180.9742 
 286   0.0000       6.705048       182.4536 
 287   0.0000       6.757761       183.8880 
 288   0.0000       6.798006       184.9832 
 289   0.0000       7.173630       195.2044 
 290   0.0000       7.296121       198.5375 
 291   0.0000       7.385633       200.9733 
 292   0.0000       7.403326       201.4547 
 293   0.0000       7.516169       204.5254 
 294   0.0000       7.551564       205.4885 
 295   0.0000       7.711676       209.8454 
 296   0.0000       7.808583       212.4823 
 297   0.0000       7.843076       213.4209 
 298   0.0000       7.868558       214.1144 
 299   0.0000       7.883312       214.5158 
 300   0.0000       8.168443       222.2746 
 301   0.0000       8.169509       222.3037 
 302   0.0000       8.197589       223.0677 
 303   0.0000       8.219456       223.6628 
 304   0.0000       8.426468       229.2958 
 305   0.0000       8.702893       236.8178 
 306   0.0000       8.782527       238.9847 
 307   0.0000       8.811299       239.7676 
 308   0.0000       8.888536       241.8694 
 309   0.0000       9.287284       252.7198 
 310   0.0000       9.296856       252.9803 
 311   0.0000       9.364663       254.8254 
 312   0.0000       9.393275       255.6040 
 313   0.0000       9.435342       256.7487 
 314   0.0000       9.469053       257.6660 
 315   0.0000       9.738427       264.9961 
 316   0.0000       9.741460       265.0786 
 317   0.0000       9.742177       265.0981 
 318   0.0000       9.995290       271.9857 
 319   0.0000      10.326375       280.9949 
 320   0.0000      10.520809       286.2858 
 321   0.0000      10.749793       292.5167 
 322   0.0000      10.788248       293.5631 
 323   0.0000      10.911960       296.9295 
 324   0.0000      11.001959       299.3785 
 325   0.0000      11.012557       299.6669 
 326   0.0000      11.079327       301.4838 
 327   0.0000      11.503574       313.0282 
 328   0.0000      11.611673       315.9697 
 329   0.0000      11.788531       320.7823 
 330   0.0000      11.904044       323.9255 
 331   0.0000      11.977256       325.9177 
 332   0.0000      11.990254       326.2714 
 333   0.0000      11.991545       326.3065 
 334   0.0000      11.992259       326.3260 
 335   0.0000      11.992857       326.3422 
 336   0.0000      12.001207       326.5694 
 337   0.0000      12.009633       326.7987 
 338   0.0000      12.013292       326.8983 
 339   0.0000      12.024620       327.2065 
 340   0.0000      12.094443       329.1065 
 341   0.0000      12.164901       331.0238 
 342   0.0000      12.177486       331.3663 
 343   0.0000      12.180267       331.4419 
 344   0.0000      12.183598       331.5326 
 345   0.0000      12.241603       333.1109 
 346   0.0000      12.311648       335.0170 
 347   0.0000      12.428099       338.1858 
 348   0.0000      12.429136       338.2140 
 349   0.0000      12.477224       339.5225 
 350   0.0000      12.489403       339.8539 
 351   0.0000      12.510847       340.4374 
 352   0.0000      12.512318       340.4775 
 353   0.0000      12.526194       340.8551 
 354   0.0000      12.585857       342.4786 
 355   0.0000      12.635453       343.8282 
 356   0.0000      12.643513       344.0475 
 357   0.0000      12.644139       344.0645 
 358   0.0000      12.646021       344.1157 
 359   0.0000      12.661015       344.5237 
 360   0.0000      12.952276       352.4493 
 361   0.0000      13.007552       353.9535 
 362   0.0000      13.053723       355.2099 
 363   0.0000      13.191050       358.9467 
 364   0.0000      13.325154       362.5959 
 365   0.0000      13.510233       367.6321 
 366   0.0000      14.043610       382.1461 
 367   0.0000      14.060865       382.6156 
 368   0.0000      14.205383       386.5481 
 369   0.0000      14.435424       392.8079 
 370   0.0000      15.374271       418.3552 
 371   0.0000      15.491257       421.5385 
 372   0.0000      16.938088       460.9088 
 373   0.0000      16.940913       460.9857 
 374   0.0000      16.941030       460.9889 
 375   0.0000      16.950026       461.2337 
 376   0.0000      16.958757       461.4712 
 377   0.0000      17.059812       464.2211 
 378   0.0000      17.083072       464.8540 
 379   0.0000      17.135929       466.2923 
 380   0.0000      17.156726       466.8583 
 381   0.0000      17.183877       467.5971 
 382   0.0000      17.239767       469.1179 
 383   0.0000      17.715341       482.0589 
 384   0.0000      17.729464       482.4432 
 385   0.0000      17.789252       484.0702 
 386   0.0000      17.844100       485.5626 
 387   0.0000      18.299854       497.9643 
 388   0.0000      18.374779       500.0032 
 389   0.0000      18.498312       503.3647 
 390   0.0000      18.546147       504.6663 
 391   0.0000      18.626997       506.8664 
 392   0.0000      18.644450       507.3413 
 393   0.0000      19.182444       521.9808 
 394   0.0000      19.361132       526.8432 
 395   0.0000      22.874058       622.4348 
 396   0.0000      22.930933       623.9824 
 397   0.0000      22.933286       624.0464 
 398   0.0000      22.979470       625.3032 
 399   0.0000      23.256106       632.8308 
 400   0.0000      23.270120       633.2122 
 401   0.0000      23.313257       634.3860 
 402   0.0000      23.463275       638.4682 
 403   0.0000      24.271587       660.4635 
 404   0.0000      24.419172       664.4795 
 405   0.0000      29.753924       809.6454 
 406   0.0000      29.867818       812.7446 
 407   0.0000      31.792282       865.1120 
 408   0.0000      31.864904       867.0881 
 409   0.0000      31.881833       867.5488 
 410   0.0000      31.944382       869.2508 
 411   0.0000      32.871038       894.4664 
 412   0.0000      33.264829       905.1820 
 413   0.0000      35.093373       954.9392 
 414   0.0000      62.368025      1697.1202 
 415   0.0000      62.442095      1699.1358 
 416   0.0000      62.512501      1701.0516 
 417   0.0000      63.173243      1719.0313 
 418   0.0000      63.315835      1722.9115 
 419   0.0000      66.476813      1808.9261 
 420   0.0000      66.516207      1809.9980 
 421   0.0000      66.518946      1810.0725 
 422   0.0000      66.546587      1810.8247 
 423   0.0000      66.730862      1815.8391 
 424   0.0000      66.742801      1816.1639 
 425   0.0000      66.764610      1816.7574 
 426   0.0000      66.893640      1820.2685 
 427   0.0000      67.511741      1837.0879 
 428   0.0000      67.543811      1837.9605 
 429   0.0000     142.583149      3879.8847 
 430   0.0000     142.796312      3885.6852 

                    ********************************
                    * MULLIKEN POPULATION ANALYSIS *
                    ********************************

--------------------------------------------
MULLIKEN ATOMIC CHARGES AND SPIN POPULATIONS
--------------------------------------------
   0 S :    0.214844   -0.000000
   1 O :   -0.107418    0.000000
   2 O :   -0.107426    0.000000
Sum of atomic charges         :    0.0000000
Sum of atomic spin populations:    0.0000000

-----------------------------------------------------
MULLIKEN REDUCED ORBITAL CHARGES AND SPIN POPULATIONS
-----------------------------------------------------
CHARGE
  0 S s       :     5.940758  s :     5.940758
      pz      :     3.160641  p :     8.970587
      px      :     2.933813
      py      :     2.876132
      dz2     :     0.128563  d :     0.778622
      dxz     :     0.022852
      dyz     :     0.226122
      dx2y2   :     0.210492
      dxy     :     0.190592
      f0      :     0.007300  f :     0.078167
      f+1     :     0.000003
      f-1     :     0.030673
      f+2     :     0.011982
      f-2     :     0.015891
      f+3     :     0.005579
      f-3     :     0.006739
      g0      :     0.001618  g :     0.014883
      g+1     :     0.000113
      g-1     :     0.001909
      g+2     :     0.003020
      g-2     :     0.000250
      g+3     :     0.001992
      g-3     :     0.001790
      g+4     :     0.001630
      g-4     :     0.002562
      h0      :     0.000328  h :     0.002139
      h+1     :     0.000023
      h-1     :     0.000301
      h+2     :     0.000555
      h-2     :     0.000013
      h+3     :     0.000125
      h-3     :     0.000227
      h+4     :     0.000278
      h-4     :     0.000321
      h+5     :     0.000038
      h-5     :    -0.000068
  1 O s       :     3.790405  s :     3.790405
      pz      :     1.573810  p :     4.289075
      px      :     1.395095
      py      :     1.320170
      dz2     :     0.007403  d :     0.032947
      dxz     :     0.004794
      dyz     :     0.002340
      dx2y2   :     0.006834
      dxy     :     0.011575
      f0      :    -0.001430  f :    -0.002695
      f+1     :    -0.000160
      f-1     :    -0.000322
      f+2     :    -0.002148
      f-2     :     0.000728
      f+3     :     0.000906
      f-3     :    -0.000269
      g0      :    -0.000135  g :    -0.001896
      g+1     :    -0.000006
      g-1     :    -0.000693
      g+2     :    -0.000370
      g-2     :     0.000121
      g+3     :     0.000126
      g-3     :    -0.000554
      g+4     :    -0.000173
      g-4     :    -0.000212
      h0      :    -0.000038  h :    -0.000417
      h+1     :     0.000011
      h-1     :    -0.000013
      h+2     :    -0.000129
      h-2     :     0.000008
      h+3     :     0.000044
      h-3     :    -0.000035
      h+4     :    -0.000125
      h-4     :     0.000050
      h+5     :    -0.000163
      h-5     :    -0.000027
  2 O s       :     3.790399  s :     3.790399
      pz      :     1.573815  p :     4.289088
      px      :     1.395095
      py      :     1.320179
      dz2     :     0.007403  d :     0.032947
      dxz     :     0.004794
      dyz     :     0.002340
      dx2y2   :     0.006834
      dxy     :     0.011576
      f0      :    -0.001430  f :    -0.002695
      f+1     :    -0.000160
      f-1     :    -0.000323
      f+2     :    -0.002149
      f-2     :     0.000728
      f+3     :     0.000906
      f-3     :    -0.000269
      g0      :    -0.000135  g :    -0.001897
      g+1     :    -0.000006
      g-1     :    -0.000693
      g+2     :    -0.000370
      g-2     :     0.000121
      g+3     :     0.000126
      g-3     :    -0.000554
      g+4     :    -0.000173
      g-4     :    -0.000212
      h0      :    -0.000038  h :    -0.000417
      h+1     :     0.000011
      h-1     :    -0.000013
      h+2     :    -0.000129
      h-2     :     0.000008
      h+3     :     0.000044
      h-3     :    -0.000035
      h+4     :    -0.000125
      h-4     :     0.000050
      h+5     :    -0.000163
      h-5     :    -0.000027

SPIN
  0 S s       :    -0.000000  s :    -0.000000
      pz      :     0.000000  p :     0.000000
      px      :     0.000000
      py      :     0.000000
      dz2     :     0.000000  d :     0.000000
      dxz     :    -0.000000
      dyz     :     0.000000
      dx2y2   :     0.000000
      dxy     :     0.000000
      f0      :    -0.000000  f :     0.000000
      f+1     :     0.000000
      f-1     :     0.000000
      f+2     :    -0.000000
      f-2     :     0.000000
      f+3     :    -0.000000
      f-3     :     0.000000
      g0      :    -0.000000  g :     0.000000
      g+1     :    -0.000000
      g-1     :     0.000000
      g+2     :    -0.000000
      g-2     :     0.000000
      g+3     :    -0.000000
      g-3     :     0.000000
      g+4     :    -0.000000
      g-4     :    -0.000000
      h0      :    -0.000000  h :     0.000000
      h+1     :    -0.000000
      h-1     :     0.000000
      h+2     :    -0.000000
      h-2     :     0.000000
      h+3     :     0.000000
      h-3     :     0.000000
      h+4     :     0.000000
      h-4     :     0.000000
      h+5     :    -0.000000
      h-5     :    -0.000000
  1 O s       :     0.000000  s :     0.000000
      pz      :     0.000000  p :     0.000000
      px      :    -0.000000
      py      :     0.000000
      dz2     :     0.000000  d :     0.000000
      dxz     :    -0.000000
      dyz     :     0.000000
      dx2y2   :     0.000000
      dxy     :     0.000000
      f0      :     0.000000  f :     0.000000
      f+1     :     0.000000
      f-1     :    -0.000000
      f+2     :     0.000000
      f-2     :     0.000000
      f+3     :     0.000000
      f-3     :     0.000000
      g0      :     0.000000  g :     0.000000
      g+1     :     0.000000
      g-1     :    -0.000000
      g+2     :     0.000000
      g-2     :    -0.000000
      g+3     :     0.000000
      g-3     :     0.000000
      g+4     :    -0.000000
      g-4     :     0.000000
      h0      :    -0.000000  h :    -0.000000
      h+1     :    -0.000000
      h-1     :     0.000000
      h+2     :    -0.000000
      h-2     :     0.000000
      h+3     :    -0.000000
      h-3     :    -0.000000
      h+4     :    -0.000000
      h-4     :     0.000000
      h+5     :     0.000000
      h-5     :    -0.000000
  2 O s       :    -0.000000  s :    -0.000000
      pz      :    -0.000000  p :     0.000000
      px      :    -0.000000
      py      :     0.000000
      dz2     :    -0.000000  d :     0.000000
      dxz     :     0.000000
      dyz     :     0.000000
      dx2y2   :     0.000000
      dxy     :     0.000000
      f0      :     0.000000  f :    -0.000000
      f+1     :     0.000000
      f-1     :    -0.000000
      f+2     :     0.000000
      f-2     :    -0.000000
      f+3     :     0.000000
      f-3     :    -0.000000
      g0      :    -0.000000  g :    -0.000000
      g+1     :    -0.000000
      g-1     :    -0.000000
      g+2     :    -0.000000
      g-2     :    -0.000000
      g+3     :    -0.000000
      g-3     :     0.000000
      g+4     :    -0.000000
      g-4     :     0.000000
      h0      :    -0.000000  h :    -0.000000
      h+1     :    -0.000000
      h-1     :    -0.000000
      h+2     :    -0.000000
      h-2     :    -0.000000
      h+3     :    -0.000000
      h-3     :    -0.000000
      h+4     :    -0.000000
      h-4     :    -0.000000
      h+5     :     0.000000
      h-5     :    -0.000000


                     *******************************
                     * LOEWDIN POPULATION ANALYSIS *
                     *******************************

-------------------------------------------
LOEWDIN ATOMIC CHARGES AND SPIN POPULATIONS
-------------------------------------------
   0 S :    0.985673   -0.000000
   1 O :   -0.492837   -0.000000
   2 O :   -0.492837    0.000000

----------------------------------------------------
LOEWDIN REDUCED ORBITAL CHARGES AND SPIN POPULATIONS
----------------------------------------------------
CHARGE
  0 S s       :     4.853398  s :     4.853398
      pz      :     2.864657  p :     8.254607
      px      :     2.633005
      py      :     2.756946
      dz2     :     0.197011  d :     1.279315
      dxz     :     0.028208
      dyz     :     0.408959
      dx2y2   :     0.363325
      dxy     :     0.281812
      f0      :     0.040689  f :     0.418859
      f+1     :     0.000084
      f-1     :     0.137327
      f+2     :     0.089489
      f-2     :     0.070799
      f+3     :     0.023517
      f-3     :     0.056954
      g0      :     0.013788  g :     0.154332
      g+1     :     0.000710
      g-1     :     0.025874
      g+2     :     0.028189
      g-2     :     0.003636
      g+3     :     0.013883
      g-3     :     0.026403
      g+4     :     0.017327
      g-4     :     0.024523
      h0      :     0.004398  h :     0.053816
      h+1     :     0.000254
      h-1     :     0.005267
      h+2     :     0.007743
      h-2     :     0.000328
      h+3     :     0.001508
      h-3     :     0.007798
      h+4     :     0.008324
      h-4     :     0.011108
      h+5     :     0.003298
      h-5     :     0.003790
  1 O s       :     3.352521  s :     3.352521
      pz      :     1.483833  p :     4.253010
      px      :     1.223125
      py      :     1.546052
      dz2     :     0.047474  d :     0.365168
      dxz     :     0.015275
      dyz     :     0.140117
      dx2y2   :     0.088901
      dxy     :     0.073400
      f0      :     0.021640  f :     0.239142
      f+1     :     0.001437
      f-1     :     0.060284
      f+2     :     0.050648
      f-2     :     0.014383
      f+3     :     0.049217
      f-3     :     0.041531
      g0      :     0.015856  g :     0.166408
      g+1     :     0.000594
      g-1     :     0.027669
      g+2     :     0.030344
      g-2     :     0.002509
      g+3     :     0.007172
      g-3     :     0.022100
      g+4     :     0.025977
      g-4     :     0.034186
      h0      :     0.010380  h :     0.116588
      h+1     :     0.000194
      h-1     :     0.012171
      h+2     :     0.019586
      h-2     :     0.000298
      h+3     :     0.002954
      h-3     :     0.014307
      h+4     :     0.013631
      h-4     :     0.003719
      h+5     :     0.023199
      h-5     :     0.016149
  2 O s       :     3.352521  s :     3.352521
      pz      :     1.483833  p :     4.253010
      px      :     1.223125
      py      :     1.546052
      dz2     :     0.047474  d :     0.365168
      dxz     :     0.015275
      dyz     :     0.140117
      dx2y2   :     0.088901
      dxy     :     0.073400
      f0      :     0.021640  f :     0.239142
      f+1     :     0.001437
      f-1     :     0.060284
      f+2     :     0.050648
      f-2     :     0.014383
      f+3     :     0.049217
      f-3     :     0.041531
      g0      :     0.015856  g :     0.166408
      g+1     :     0.000594
      g-1     :     0.027669
      g+2     :     0.030344
      g-2     :     0.002509
      g+3     :     0.007172
      g-3     :     0.022100
      g+4     :     0.025977
      g-4     :     0.034186
      h0      :     0.010380  h :     0.116588
      h+1     :     0.000194
      h-1     :     0.012171
      h+2     :     0.019586
      h-2     :     0.000298
      h+3     :     0.002954
      h-3     :     0.014307
      h+4     :     0.013631
      h-4     :     0.003719
      h+5     :     0.023199
      h-5     :     0.016149

SPIN
  0 S s       :    -0.000000  s :    -0.000000
      pz      :    -0.000000  p :     0.000000
      px      :     0.000000
      py      :     0.000000
      dz2     :    -0.000000  d :     0.000000
      dxz     :    -0.000000
      dyz     :    -0.000000
      dx2y2   :     0.000000
      dxy     :     0.000000
      f0      :     0.000000  f :     0.000000
      f+1     :     0.000000
      f-1     :     0.000000
      f+2     :     0.000000
      f-2     :    -0.000000
      f+3     :    -0.000000
      f-3     :     0.000000
      g0      :     0.000000  g :    -0.000000
      g+1     :    -0.000000
      g-1     :    -0.000000
      g+2     :    -0.000000
      g-2     :     0.000000
      g+3     :    -0.000000
      g-3     :    -0.000000
      g+4     :     0.000000
      g-4     :    -0.000000
      h0      :    -0.000000  h :    -0.000000
      h+1     :    -0.000000
      h-1     :    -0.000000
      h+2     :    -0.000000
      h-2     :    -0.000000
      h+3     :     0.000000
      h-3     :    -0.000000
      h+4     :     0.000000
      h-4     :    -0.000000
      h+5     :     0.000000
      h-5     :    -0.000000
  1 O s       :     0.000000  s :     0.000000
      pz      :    -0.000000  p :    -0.000000
      px      :    -0.000000
      py      :    -0.000000
      dz2     :    -0.000000  d :    -0.000000
      dxz     :    -0.000000
      dyz     :     0.000000
      dx2y2   :    -0.000000
      dxy     :     0.000000
      f0      :     0.000000  f :    -0.000000
      f+1     :    -0.000000
      f-1     :    -0.000000
      f+2     :     0.000000
      f-2     :     0.000000
      f+3     :    -0.000000
      f-3     :    -0.000000
      g0      :     0.000000  g :     0.000000
      g+1     :     0.000000
      g-1     :     0.000000
      g+2     :     0.000000
      g-2     :     0.000000
      g+3     :     0.000000
      g-3     :    -0.000000
      g+4     :    -0.000000
      g-4     :     0.000000
      h0      :     0.000000  h :    -0.000000
      h+1     :     0.000000
      h-1     :    -0.000000
      h+2     :     0.000000
      h-2     :     0.000000
      h+3     :     0.000000
      h-3     :     0.000000
      h+4     :    -0.000000
      h-4     :     0.000000
      h+5     :    -0.000000
      h-5     :    -0.000000
  2 O s       :     0.000000  s :     0.000000
      pz      :     0.000000  p :     0.000000
      px      :     0.000000
      py      :     0.000000
      dz2     :    -0.000000  d :    -0.000000
      dxz     :     0.000000
      dyz     :    -0.000000
      dx2y2   :     0.000000
      dxy     :    -0.000000
      f0      :     0.000000  f :     0.000000
      f+1     :    -0.000000
      f-1     :     0.000000
      f+2     :     0.000000
      f-2     :    -0.000000
      f+3     :     0.000000
      f-3     :     0.000000
      g0      :     0.000000  g :     0.000000
      g+1     :    -0.000000
      g-1     :     0.000000
      g+2     :     0.000000
      g-2     :    -0.000000
      g+3     :     0.000000
      g-3     :     0.000000
      g+4     :    -0.000000
      g-4     :     0.000000
      h0      :    -0.000000  h :    -0.000000
      h+1     :     0.000000
      h-1     :    -0.000000
      h+2     :     0.000000
      h-2     :     0.000000
      h+3     :     0.000000
      h-3     :     0.000000
      h+4     :    -0.000000
      h-4     :     0.000000
      h+5     :     0.000000
      h-5     :    -0.000000


                      *****************************
                      * MAYER POPULATION ANALYSIS *
                      *****************************

  NA   - Mulliken gross atomic population
  ZA   - Total nuclear charge
  QA   - Mulliken gross atomic charge
  VA   - Mayer's total valence
  BVA  - Mayer's bonded valence
  FA   - Mayer's free valence

  ATOM       NA         ZA         QA         VA         BVA        FA
  0 S     15.7852    16.0000     0.2148     4.0033     4.0033     0.0000
  1 O      8.1074     8.0000    -0.1074     2.1983     2.1983     0.0000
  2 O      8.1074     8.0000    -0.1074     2.1983     2.1983     0.0000

  Mayer bond orders larger than 0.1
B(  0-S ,  1-O ) :   2.0016 B(  0-S ,  2-O ) :   2.0017 B(  1-O ,  2-O ) :   0.1966 


-------
TIMINGS
-------

Total SCF time: 0 days 2 hours 10 min 54 sec 

Total time                  ....    7854.596 sec
Sum of individual times     ....    7853.095 sec  (100.0%)

Fock matrix formation       ....    7840.721 sec  ( 99.8%)
  XC integration            ....     162.596 sec  (  2.1% of F)
    Basis function eval.    ....      11.928 sec  (  7.3% of XC)
    Density eval.           ....      35.991 sec  ( 22.1% of XC)
    XC-Functional eval.     ....       1.394 sec  (  0.9% of XC)
    XC-Potential eval.      ....     112.353 sec  ( 69.1% of XC)
Diagonalization             ....       2.176 sec  (  0.0%)
Density matrix formation    ....       0.052 sec  (  0.0%)
Population analysis         ....       0.171 sec  (  0.0%)
Initial guess               ....       6.178 sec  (  0.1%)
Orbital Transformation      ....       0.000 sec  (  0.0%)
Orbital Orthonormalization  ....       0.000 sec  (  0.0%)
DIIS solution               ....       0.949 sec  (  0.0%)
Grid generation             ....       2.848 sec  (  0.0%)

-------------------------   --------------------
FINAL SINGLE POINT ENERGY      -548.431339273346
-------------------------   --------------------


                            ***************************************
                            *     ORCA property calculations      *
                            ***************************************

                                    ---------------------
                                    Active property flags
                                    ---------------------
   (+) Dipole Moment
   (+) Polarizability


------------------------------------------------------------------------------
                       ORCA ELECTRIC PROPERTIES CALCULATION
------------------------------------------------------------------------------

Dipole Moment Calculation                       ... on
Quadrupole Moment Calculation                   ... off
Polarizability Calculation                      ... Analytic (CP-SCF)
GBWName                                         ... so2_pbe.gbw
Electron density file                           ... so2_pbe.scfp.tmp
The origin for moment calculation is the CENTER OF MASS  = ( 0.000000,  0.000000  0.681059)

-------------
DIPOLE MOMENT
-------------
                                X             Y             Z
Electronic contribution:      0.00000      -0.00000      -0.60538
Nuclear contribution   :      0.00000       0.00000       0.02111
                        -----------------------------------------
Total Dipole Moment    :      0.00000      -0.00000      -0.58426
                        -----------------------------------------
Magnitude (a.u.)       :      0.58426
Magnitude (Debye)      :      1.48508



--------------------
Rotational spectrum 
--------------------
 
Rotational constants in cm-1:     2.022140     0.344242     0.294165 
Rotational constants in MHz : 60622.236728 10320.129716  8818.839547 

 Dipole components along the rotational axes: 
x,y,z [a.u.] :    -0.000000    -0.584265     0.000000 
x,y,z [Debye]:    -0.000000    -1.485083     0.000000 

 
Transforming and storing MO dipole integrals   ... done

                ... starting polarizability calculation

Opening the Dipole integral file               ... (so2_pbe.dmo.tmp) done
Reading Dipole-MO integrals                    ... done
Solving CP-SCF equations                       ... 
------------------------------------------------------------------------------
                           ORCA CP-SCF CALCULATION
------------------------------------------------------------------------------

Input orbitals are from        ... so2_pbe.gbw
Input Perturbation             ... so2_pbe.cpv.tmp
Wavefunction output            ... so2_pbe.cpu.tmp
Perturbation mode              ... Real perturbation (singlet)
Solver                         ... POPLE
Max. number of iterations      ... 200
Convergence tolerance          ... 1.000e-06
Integral handling              ... Direct
Number of perturbations        ... 3
Number of operators            ... 2
Orbital ranges used for CP-SCF:
 Operator 0:  Orbitals   0... 15  to  16...430
 Operator 1:  Orbitals   0... 15  to  16...430
DFT calculation                         ... on
Exchange functional (SCF)               ... PBE
Exchange functional (CP-SCF)            ... PBE
   PBE kappa parameter  XKappa (SCF)    ...  0.804000
   PBE kappa parameter  XKappa (CP-SCF) ...  0.804000
   PBE mue parameter   XMuePBE (SCF)    ...  0.219520
   PBE mue parameter   XMuePBE (CP-SCF) ...  0.219520
Correlation functional (SCF)            ... PBE
Correlation functional (CP-SCF)         ... PBE
   PBE beta parameter CBetaPBE (SCF)    ...  0.066725
   PBE beta parameter CBetaPBE (CP-SCF) ...  0.066725
 LDA part of GGA corr.  LDAOpt (SCF)    ... PW91-LDA
 LDA part of GGA corr.  LDAOpt (CP-SCF) ... PW91-LDA
Variables per vector in CP-SCF ... 13280
Number of vectors sought       ... 3
Recalculating density on grid  ... done
Calculating the xc-kernel      ... done
     CP-SCF ITERATION   0: 
     CP-SCF ITERATION   1:      0.479363939254
     CP-SCF ITERATION   2:      0.010224871667
     CP-SCF ITERATION   3:      0.000279145485
     CP-SCF ITERATION   4:      0.000005872313
     CP-SCF ITERATION   5:      0.000000088112
done
Reading CP-SCF coefficients                    ... done
Doing the polarizability tensor   ... done
Cleaning up                                    ... done

-------------------------
THE POLARIZABILITY TENSOR
-------------------------

The raw cartesian tensor (atomic units):
   20.33630     -0.00000      0.00000  
   -0.00000     34.51006      0.00000  
    0.00000      0.00000     24.10813  
diagonalized tensor: 
   20.33630     24.10813     34.51006  

    1.00000     -0.00000     -0.00000  
    0.00000      0.00000      1.00000  
   -0.00000     -1.00000      0.00000  

Isotropic polarizability :  26.31817


Timings for individual modules:

Sum of individual times         ...    12389.586 sec (= 206.493 min)
GTO integral calculation        ...        7.095 sec (=   0.118 min)   0.1 %
SCF iterations                  ...     7854.636 sec (= 130.911 min)  63.4 %
Solution of CP-SCF eqns.        ...     4527.855 sec (=  75.464 min)  36.5 %
                             ****ORCA TERMINATED NORMALLY****
TOTAL RUN TIME: 0 days 3 hours 26 minutes 30 seconds 149 msec
