
                                 *****************
                                 * O   R   C   A *
                                 *****************

           --- An Ab Initio, DFT and Semiempirical electronic structure package ---

                  #######################################################
                  #                        -***-                        #
                  #          Department of theory and spectroscopy      #
                  #               Directorship: Frank Neese             #
                  #        Max Planck Institute fuer Kohlenforschung    #
                  #                Kaiser Wilhelm Platz 1               #
                  #                 D-45470 Muelheim/Ruhr               #
                  #                      Germany                        #
                  #                                                     #
                  #                  All rights reserved                #
                  #                        -***-                        #
                  #######################################################


                         Program Version 4.1.2  - RELEASE  -


 With contributions from (in alphabetic order):
   Daniel Aravena         : Magnetic Properties
   Michael Atanasov       : Ab Initio Ligand Field Theory
   Alexander A. Auer      : GIAO ZORA
   Ute Becker             : Parallelization
   Giovanni Bistoni       : ED, Open-shell LED
   Martin Brehm           : Molecular dynamics
   Dmytro Bykov           : SCF Hessian
   Vijay G. Chilkuri      : MRCI spin determinant printing
   Dipayan Datta          : RHF DLPNO-CCSD density
   Achintya Kumar Dutta   : EOM-CC, STEOM-CC
   Dmitry Ganyushin       : Spin-Orbit,Spin-Spin,Magnetic field MRCI
   Miquel Garcia          : C-PCM Hessian
   Yang Guo               : DLPNO-NEVPT2, CIM, IAO-localization
   Andreas Hansen         : Spin unrestricted coupled pair/coupled cluster methods
   Benjamin Helmich-Paris : CASSCF linear response (MC-RPA)
   Lee Huntington         : MR-EOM, pCC
   Robert Izsak           : Overlap fitted RIJCOSX, COSX-SCS-MP3, EOM
   Christian Kollmar      : KDIIS, OOCD, Brueckner-CCSD(T), CCSD density
   Simone Kossmann        : Meta GGA functionals, TD-DFT gradient, OOMP2, MP2 Hessian
   Martin Krupicka        : AUTO-CI
   Lucas Lang             : DCDCAS
   Dagmar Lenk            : GEPOL surface, SMD
   Dimitrios Liakos       : Extrapolation schemes; parallel MDCI
   Dimitrios Manganas     : ROCIS; embedding schemes
   Dimitrios Pantazis     : SARC Basis sets
   Taras Petrenko         : DFT Hessian,TD-DFT gradient, ASA, ECA, R-Raman, ABS, FL, XAS/XES, NRVS
   Peter Pinski           : DLPNO-MP2, DLPNO-MP2 Gradient
   Christoph Reimann      : Effective Core Potentials
   Marius Retegan         : Local ZFS, SOC
   Christoph Riplinger    : Optimizer, TS searches, QM/MM, DLPNO-CCSD(T), (RO)-DLPNO pert. Triples
   Tobias Risthaus        : Range-separated hybrids, TD-DFT gradient, RPA, STAB
   Michael Roemelt        : Restricted open shell CIS
   Masaaki Saitow         : Open-shell DLPNO
   Barbara Sandhoefer     : DKH picture change effects
   Avijit Sen             : IP-ROCIS
   Kantharuban Sivalingam : CASSCF convergence, NEVPT2, FIC-MRCI
   Bernardo de Souza      : ESD, SOC TD-DFT
   Georgi Stoychev        : AutoAux, RI-MP2 NMR
   Willem Van den Heuvel  : Paramagnetic NMR
   Boris Wezisla          : Elementary symmetry handling
   Frank Wennmohs         : Technical directorship


 We gratefully acknowledge several colleagues who have allowed us to
 interface, adapt or use parts of their codes:
   Stefan Grimme, W. Hujo, H. Kruse,             : VdW corrections, initial TS optimization,
                  C. Bannwarth                     DFT functionals, gCP, sTDA/sTD-DF
   Ed Valeev                                     : LibInt (2-el integral package), F12 methods
   Garnet Chan, S. Sharma, J. Yang, R. Olivares  : DMRG
   Ulf Ekstrom                                   : XCFun DFT Library
   Mihaly Kallay                                 : mrcc  (arbitrary order and MRCC methods)
   Andreas Klamt, Michael Diedenhofen            : otool_cosmo (COSMO solvation model)
   Jiri Pittner, Ondrej Demel                    : Mk-CCSD
   Frank Weinhold                                : gennbo (NPA and NBO analysis)
   Christopher J. Cramer and Donald G. Truhlar   : smd solvation model
   Lars Goerigk                                  : TD-DFT with DH, B97 family of functionals
   V. Asgeirsson, H. Jonsson                     : NEB implementation
   FAccTs GmbH                                   : IRC, NEB, NEB-TS, Multilevel


 Your calculation uses the libint2 library for the computation of 2-el integrals
 For citations please refer to: http://libint.valeyev.net

 This ORCA versions uses:
   CBLAS   interface :  Fast vector & matrix operations
   LAPACKE interface :  Fast linear algebra routines
   SCALAPACK package :  Parallel linear algebra routines


----- Orbital basis set information -----
Your calculation utilizes the basis: aug-pc-4
   H, C-F              : F. Jensen, J. Chem. Phys. 115, 9113 (2001).
                         F. Jensen, J. Chem. Phys. 116, 7372 (2002).
                         F. Jensen, J. Chem. Phys. 117, 9234 (2002).
   Si-Cl               : F. Jensen, T. Helgaker, J. Chem. Phys. 121, 3463 (2004).
   He-B, Ne-Mg, Al, Ar : F. Jensen, J. Phys. Chem. A 111, 11198 (2007).
   K, Ca, Ga-Kr        : F. Jensen, J. Chem. Phys. 136, 094110 (2012).
   Sc-Zn               : F. Jensen, J. Chem. Phys. 138, 014107 (2013).

================================================================================
                                        WARNINGS
                       Please study these warnings very carefully!
================================================================================


INFO   : the flag for use of LIBINT has been found!

================================================================================
                                       INPUT FILE
================================================================================
NAME = bn_pbe_-0001_x.inp
|  1> !uks pbe nori aug-pc-4 grid5 nofinalgrid verytightscf
|  2> 
|  3> %maxcore 6000
|  4> 
|  5> %pal nprocs 4 end
|  6> 
|  7> %scf
|  8> 	efield -0.001, 0.0, 0.0
|  9> 	maxiter 200
| 10> end
| 11> 
| 12> * xyz 0 3
| 13> B 0.0000 0.0000 0.0000
| 14> N 0.0000 0.0000 1.3250
| 15> *
| 16> 
| 17>                          ****END OF INPUT****
================================================================================

                       ****************************
                       * Single Point Calculation *
                       ****************************

---------------------------------
CARTESIAN COORDINATES (ANGSTROEM)
---------------------------------
  B      0.000000    0.000000    0.000000
  N      0.000000    0.000000    1.325000

----------------------------
CARTESIAN COORDINATES (A.U.)
----------------------------
  NO LB      ZA    FRAG     MASS         X           Y           Z
   0 B     5.0000    0    10.810    0.000000    0.000000    0.000000
   1 N     7.0000    0    14.007    0.000000    0.000000    2.503887

--------------------------------
INTERNAL COORDINATES (ANGSTROEM)
--------------------------------
 B      0   0   0     0.000000000000     0.00000000     0.00000000
 N      1   0   0     1.325000000000     0.00000000     0.00000000

---------------------------
INTERNAL COORDINATES (A.U.)
---------------------------
 B      0   0   0     0.000000000000     0.00000000     0.00000000
 N      1   0   0     2.503887127446     0.00000000     0.00000000

---------------------
BASIS SET INFORMATION
---------------------
There are 2 groups of distinct atoms

 Group   1 Type B   : 27s12p7d4f3g2h contracted to 9s8p7d4f3g2h pattern {1191111111/51111111/1111111/1111/111/11}
 Group   2 Type N   : 27s12p7d4f3g2h contracted to 9s8p7d4f3g2h pattern {1191111111/51111111/1111111/1111/111/11}

Atom   0B    basis set group =>   1
Atom   1N    basis set group =>   2


           ************************************************************
           *        Program running with 4 parallel MPI-processes     *
           *              working on a common directory               *
           ************************************************************
------------------------------------------------------------------------------
                           ORCA GTO INTEGRAL CALCULATION
------------------------------------------------------------------------------

                         BASIS SET STATISTICS AND STARTUP INFO

 # of primitive gaussian shells          ...  110
 # of primitive gaussian functions       ...  350
 # of contracted shells                  ...   66
 # of contracted basis functions         ...  290
 Highest angular momentum                ...    5
 Maximum contraction depth               ...   11
 Integral package used                   ... LIBINT
 Integral threshhold            Thresh   ...  1.000e-12
 Primitive cut-off              TCut     ...  1.000e-14


------------------------------ INTEGRAL EVALUATION ----------------------------


 * One electron integrals 
 Pre-screening matrix                    ... done
 Shell pair data                         ... done (   0.001 sec)


An Electric Field will be added: -1.000e-03 0.000e+00 0.000e+00 au

  ... done adding electric field perturbation



           ************************************************************
           *        Program running with 4 parallel MPI-processes     *
           *              working on a common directory               *
           ************************************************************
-------------------------------------------------------------------------------
                                 ORCA SCF
-------------------------------------------------------------------------------

------------
SCF SETTINGS
------------
Hamiltonian:
 Density Functional     Method          .... DFT(GTOs)
 Exchange Functional    Exchange        .... PBE
   PBE kappa parameter   XKappa         ....  0.804000
   PBE mue parameter    XMuePBE         ....  0.219520
 Correlation Functional Correlation     .... PBE
   PBE beta parameter  CBetaPBE         ....  0.066725
 LDA part of GGA corr.  LDAOpt          .... PW91-LDA
 Gradients option       PostSCFGGA      .... off
   Density functional embedding theory  .... OFF
   NL short-range parameter             ....  6.400000


General Settings:
 Integral files         IntName         .... bn_pbe_-0001_x
 Hartree-Fock type      HFTyp           .... UHF
 Total Charge           Charge          ....    0
 Multiplicity           Mult            ....    3
 Number of Electrons    NEL             ....   12
 Basis Dimension        Dim             ....  290
 Nuclear Repulsion      ENuc            ....     13.9782658796 Eh

Convergence Acceleration:
 DIIS                   CNVDIIS         .... on
   Start iteration      DIISMaxIt       ....    12
   Startup error        DIISStart       ....  0.200000
   # of expansion vecs  DIISMaxEq       ....     5
   Bias factor          DIISBfac        ....   1.050
   Max. coefficient     DIISMaxC        ....  10.000
 Newton-Raphson         CNVNR           .... off
 SOSCF                  CNVSOSCF        .... off
 Level Shifting         CNVShift        .... on
   Level shift para.    LevelShift      ....    0.2500
   Turn off err/grad.   ShiftErr        ....    0.0010
 Zerner damping         CNVZerner       .... off
 Static damping         CNVDamp         .... on
   Fraction old density DampFac         ....    0.7000
   Max. Damping (<1)    DampMax         ....    0.9800
   Min. Damping (>=0)   DampMin         ....    0.0000
   Turn off err/grad.   DampErr         ....    0.1000
 Fernandez-Rico         CNVRico         .... off

SCF Procedure:
 Maximum # iterations   MaxIter         ....   200
 SCF integral mode      SCFMode         .... Direct
   Integral package                     .... LIBINT
 Reset frequency        DirectResetFreq ....    20
 Integral Threshold     Thresh          ....  1.000e-12 Eh
 Primitive CutOff       TCut            ....  1.000e-14 Eh

Convergence Tolerance:
 Convergence Check Mode ConvCheckMode   .... Total+1el-Energy
 Convergence forced     ConvForced      .... 0
 Energy Change          TolE            ....  1.000e-09 Eh
 1-El. energy change                    ....  1.000e-06 Eh
 DIIS Error             TolErr          ....  1.000e-08


Diagonalization of the overlap matrix:
Smallest eigenvalue                        ... 1.822e-06
Time for diagonalization                   ...    0.129 sec
Threshold for overlap eigenvalues          ... 1.000e-08
Number of eigenvalues below threshold      ... 0
Time for construction of square roots      ...    0.014 sec
Total time needed                          ...    0.143 sec

-------------------
DFT GRID GENERATION
-------------------

General Integration Accuracy     IntAcc      ...  5.010
Radial Grid Type                 RadialGrid  ... Gauss-Chebyshev
Angular Grid (max. acc.)         AngularGrid ... Lebedev-434
Angular grid pruning method      GridPruning ... 3 (G Style)
Weight generation scheme         WeightScheme... Becke
Basis function cutoff            BFCut       ...    1.0000e-12
Integration weight cutoff        WCut        ...    1.0000e-14
Grids for H and He will be reduced by one unit

# of grid points (after initial pruning)     ...  21180 (   0.0 sec)
# of grid points (after weights+screening)   ...  21087 (   0.0 sec)
nearest neighbour list constructed           ...    0.0 sec
Grid point re-assignment to atoms done       ...    0.0 sec
Grid point division into batches done        ...    0.2 sec
Reduced shell lists constructed in    0.2 sec

Total number of grid points                  ...    21087
Total number of batches                      ...      330
Average number of points per batch           ...       63
Average number of grid points per atom       ...    10544
Average number of shells per batch           ...    38.64 (58.55%)
Average number of basis functions per batch  ...   176.76 (60.95%)
Average number of large shells per batch     ...    32.98 (85.34%)
Average number of large basis fcns per batch ...   151.05 (85.45%)
Maximum spatial batch extension              ...  23.53, 23.53, 21.88 au
Average spatial batch extension              ...   1.87,  1.89,  1.61 au

Time for grid setup =    0.236 sec

------------------------------
INITIAL GUESS: MODEL POTENTIAL
------------------------------
Loading Hartree-Fock densities                     ... done
Calculating cut-offs                               ... done
Setting up the integral package                    ... done
Initializing the effective Hamiltonian             ... done
Starting the Coulomb interaction                   ... done (   0.0 sec)
Reading the grid                                   ... done
Mapping shells                                     ... done
Starting the XC term evaluation                    ... done (   0.2 sec)
  promolecular density results
     # of electrons  =     11.999998350
     EX              =    -10.158820762
     EC              =     -0.344996361
     EX+EC           =    -10.503817123
Transforming the Hamiltonian                       ... done (   0.0 sec)
Diagonalizing the Hamiltonian                      ... done (   0.0 sec)
Back transforming the eigenvectors                 ... done (   0.0 sec)
Now organizing SCF variables                       ... done
                      ------------------
                      INITIAL GUESS DONE (   0.6 sec)
                      ------------------
--------------
SCF ITERATIONS
--------------
ITER       Energy         Delta-E        Max-DP      RMS-DP      [F,P]     Damp
               ***  Starting incremental Fock matrix formation  ***
  0    -79.2634818031   0.000000000000 0.03039350  0.00026555  0.2503422 0.7000
  1    -79.3108729715  -0.047391168408 0.02208014  0.00017425  0.0619312 0.7000
                               ***Turning on DIIS***
  2    -79.3151552969  -0.004282325366 0.03949679  0.00024288  0.0461819 0.0000
  3    -79.3411387133  -0.025983416401 0.01603965  0.00012158  0.0335665 0.0000
  4    -79.3411600522  -0.000021338935 0.00474880  0.00004067  0.0480998 0.0000
  5    -79.3430407470  -0.001880694785 0.00388962  0.00003484  0.0255212 0.0000
  6    -79.3435800859  -0.000539338883 0.00215476  0.00001807  0.0127308 0.0000
  7    -79.3437106849  -0.000130599042 0.00100408  0.00000840  0.0063908 0.0000
  8    -79.3437461346  -0.000035449668 0.00029349  0.00000300  0.0029030 0.0000
  9    -79.3437542983  -0.000008163785 0.00010825  0.00000124  0.0011213 0.0000
 10    -79.3437557891  -0.000001490753 0.00029084  0.00000194  0.0005350 0.0000
 11    -79.3437564426  -0.000000653467 0.00004399  0.00000049  0.0001430 0.0000
 12    -79.3437565053  -0.000000062684 0.00002242  0.00000018  0.0000284 0.0000
 13    -79.3437565120  -0.000000006761 0.00000856  0.00000009  0.0000071 0.0000
 14    -79.3437565138  -0.000000001834 0.00000470  0.00000005  0.0000048 0.0000
 15    -79.3437565143  -0.000000000413 0.00000169  0.00000002  0.0000010 0.0000
 16    -79.3437565143  -0.000000000037 0.00000055  0.00000001  0.0000003 0.0000
                 **** Energy Check signals convergence ****

               *****************************************************
               *                     SUCCESS                       *
               *           SCF CONVERGED AFTER  17 CYCLES          *
               *****************************************************


----------------
TOTAL SCF ENERGY
----------------

Total Energy       :          -79.34375651 Eh           -2159.05338 eV

Components:
Nuclear Repulsion  :           13.97826588 Eh             380.36795 eV
Electronic Energy  :          -93.32202239 Eh           -2539.42133 eV
One Electron Energy:         -134.34364837 Eh           -3655.67652 eV
Two Electron Energy:           41.02162598 Eh            1116.25519 eV

Virial components:
Potential Energy   :         -158.41801492 Eh           -4310.77334 eV
Kinetic Energy     :           79.07425840 Eh            2151.71996 eV
Virial Ratio       :            2.00340816


DFT components:
N(Alpha)           :        7.000000389436 electrons
N(Beta)            :        5.000000472797 electrons
N(Total)           :       12.000000862232 electrons
E(X)               :      -10.367395371761 Eh       
E(C)               :       -0.341323543997 Eh       
E(XC)              :      -10.708718915758 Eh       
DFET-embed. en.    :        0.000000000000 Eh       

---------------
SCF CONVERGENCE
---------------

  Last Energy change         ...   -3.2259e-12  Tolerance :   1.0000e-09
  Last MAX-Density change    ...    2.1554e-06  Tolerance :   1.0000e-08
  Last RMS-Density change    ...    1.4791e-08  Tolerance :   1.0000e-09
  Last DIIS Error            ...    1.2398e-07  Tolerance :   1.0000e-08

             **** THE GBW FILE WAS UPDATED (bn_pbe_-0001_x.gbw) ****
             **** DENSITY FILE WAS UPDATED (bn_pbe_-0001_x.scfp.tmp) ****
             **** ENERGY FILE WAS UPDATED (bn_pbe_-0001_x.en.tmp) ****
----------------------
UHF SPIN CONTAMINATION
----------------------

Warning: in a DFT calculation there is little theoretical justification to 
         calculate <S**2> as in Hartree-Fock theory. We will do it anyways
         but you should keep in mind that the values have only limited relevance

Expectation value of <S**2>     :     2.004035
Ideal value S*(S+1) for S=1.0   :     2.000000
Deviation                       :     0.004035

----------------
ORBITAL ENERGIES
----------------
                 SPIN UP ORBITALS
  NO   OCC          E(Eh)            E(eV) 
   0   1.0000     -14.042711      -382.1216 
   1   1.0000      -6.604828      -179.7265 
   2   1.0000      -0.772814       -21.0293 
   3   1.0000      -0.363936        -9.9032 
   4   1.0000      -0.334799        -9.1103 
   5   1.0000      -0.290333        -7.9004 
   6   1.0000      -0.283350        -7.7103 
   7   0.0000      -0.082250        -2.2381 
   8   0.0000      -0.058408        -1.5894 
   9   0.0000      -0.005354        -0.1457 
  10   0.0000       0.007884         0.2145 
  11   0.0000       0.012202         0.3320 
  12   0.0000       0.014281         0.3886 
  13   0.0000       0.042799         1.1646 
  14   0.0000       0.045186         1.2296 
  15   0.0000       0.045291         1.2324 
  16   0.0000       0.047980         1.3056 
  17   0.0000       0.057848         1.5741 
  18   0.0000       0.058197         1.5836 
  19   0.0000       0.059693         1.6243 
  20   0.0000       0.061158         1.6642 
  21   0.0000       0.070514         1.9188 
  22   0.0000       0.090939         2.4746 
  23   0.0000       0.093749         2.5510 
  24   0.0000       0.095864         2.6086 
  25   0.0000       0.125200         3.4069 
  26   0.0000       0.125223         3.4075 
  27   0.0000       0.133767         3.6400 
  28   0.0000       0.142722         3.8837 
  29   0.0000       0.142723         3.8837 
  30   0.0000       0.145006         3.9458 
  31   0.0000       0.148138         4.0310 
  32   0.0000       0.157555         4.2873 
  33   0.0000       0.165453         4.5022 
  34   0.0000       0.165768         4.5108 
  35   0.0000       0.178037         4.8446 
  36   0.0000       0.180593         4.9142 
  37   0.0000       0.194096         5.2816 
  38   0.0000       0.195196         5.3116 
  39   0.0000       0.200322         5.4510 
  40   0.0000       0.207378         5.6430 
  41   0.0000       0.225544         6.1374 
  42   0.0000       0.225885         6.1466 
  43   0.0000       0.227307         6.1854 
  44   0.0000       0.228203         6.2097 
  45   0.0000       0.230028         6.2594 
  46   0.0000       0.234617         6.3842 
  47   0.0000       0.234642         6.3849 
  48   0.0000       0.242466         6.5978 
  49   0.0000       0.242466         6.5978 
  50   0.0000       0.294571         8.0157 
  51   0.0000       0.294673         8.0185 
  52   0.0000       0.311060         8.4644 
  53   0.0000       0.328054         8.9268 
  54   0.0000       0.330986         9.0066 
  55   0.0000       0.333448         9.0736 
  56   0.0000       0.336722         9.1627 
  57   0.0000       0.339784         9.2460 
  58   0.0000       0.353333         9.6147 
  59   0.0000       0.353368         9.6156 
  60   0.0000       0.355928         9.6853 
  61   0.0000       0.355934         9.6855 
  62   0.0000       0.358557         9.7568 
  63   0.0000       0.360413         9.8073 
  64   0.0000       0.360413         9.8073 
  65   0.0000       0.366991         9.9863 
  66   0.0000       0.366991         9.9863 
  67   0.0000       0.385987        10.5032 
  68   0.0000       0.389566        10.6006 
  69   0.0000       0.404224        10.9995 
  70   0.0000       0.404756        11.0140 
  71   0.0000       0.414952        11.2914 
  72   0.0000       0.414963        11.2917 
  73   0.0000       0.434106        11.8126 
  74   0.0000       0.459687        12.5087 
  75   0.0000       0.465320        12.6620 
  76   0.0000       0.469555        12.7772 
  77   0.0000       0.508639        13.8408 
  78   0.0000       0.528154        14.3718 
  79   0.0000       0.536499        14.5989 
  80   0.0000       0.550746        14.9865 
  81   0.0000       0.557334        15.1658 
  82   0.0000       0.559465        15.2238 
  83   0.0000       0.619509        16.8577 
  84   0.0000       0.623578        16.9684 
  85   0.0000       0.624337        16.9891 
  86   0.0000       0.626806        17.0562 
  87   0.0000       0.631046        17.1716 
  88   0.0000       0.631828        17.1929 
  89   0.0000       0.662910        18.0387 
  90   0.0000       0.662913        18.0388 
  91   0.0000       0.667767        18.1709 
  92   0.0000       0.699900        19.0452 
  93   0.0000       0.709232        19.2992 
  94   0.0000       0.718385        19.5483 
  95   0.0000       0.730758        19.8849 
  96   0.0000       0.734276        19.9807 
  97   0.0000       0.734384        19.9836 
  98   0.0000       0.738445        20.0941 
  99   0.0000       0.797449        21.6997 
 100   0.0000       0.797453        21.6998 
 101   0.0000       0.822610        22.3844 
 102   0.0000       0.827590        22.5199 
 103   0.0000       0.827592        22.5199 
 104   0.0000       0.875314        23.8185 
 105   0.0000       0.875314        23.8185 
 106   0.0000       0.886697        24.1283 
 107   0.0000       0.886796        24.1309 
 108   0.0000       0.908827        24.7304 
 109   0.0000       0.923211        25.1219 
 110   0.0000       0.944001        25.6876 
 111   0.0000       0.977484        26.5987 
 112   0.0000       0.987783        26.8790 
 113   0.0000       0.991800        26.9882 
 114   0.0000       1.035665        28.1819 
 115   0.0000       1.174752        31.9666 
 116   0.0000       1.178123        32.0584 
 117   0.0000       1.199876        32.6503 
 118   0.0000       1.204445        32.7746 
 119   0.0000       1.217933        33.1416 
 120   0.0000       1.339108        36.4390 
 121   0.0000       1.339185        36.4411 
 122   0.0000       1.388421        37.7809 
 123   0.0000       1.388669        37.7876 
 124   0.0000       1.444111        39.2963 
 125   0.0000       1.460361        39.7384 
 126   0.0000       1.467153        39.9233 
 127   0.0000       1.467515        39.9331 
 128   0.0000       1.476205        40.1696 
 129   0.0000       1.488339        40.4998 
 130   0.0000       1.509726        41.0817 
 131   0.0000       1.577214        42.9182 
 132   0.0000       1.706241        46.4292 
 133   0.0000       1.718566        46.7646 
 134   0.0000       1.720899        46.8280 
 135   0.0000       1.732325        47.1390 
 136   0.0000       1.734056        47.1861 
 137   0.0000       1.925456        52.3943 
 138   0.0000       1.948287        53.0156 
 139   0.0000       1.956386        53.2360 
 140   0.0000       1.992501        54.2187 
 141   0.0000       2.078753        56.5657 
 142   0.0000       2.080594        56.6158 
 143   0.0000       2.456460        66.8437 
 144   0.0000       2.477752        67.4231 
 145   0.0000       2.558127        69.6102 
 146   0.0000       2.818473        76.6945 
 147   0.0000       2.841278        77.3151 
 148   0.0000       2.853267        77.6413 
 149   0.0000       2.854017        77.6618 
 150   0.0000       2.855328        77.6974 
 151   0.0000       2.977429        81.0200 
 152   0.0000       2.995060        81.4997 
 153   0.0000       2.995908        81.5228 
 154   0.0000       3.116646        84.8083 
 155   0.0000       3.116660        84.8086 
 156   0.0000       3.158138        85.9373 
 157   0.0000       3.158182        85.9385 
 158   0.0000       3.172953        86.3404 
 159   0.0000       3.199213        87.0550 
 160   0.0000       3.315201        90.2112 
 161   0.0000       3.495358        95.1135 
 162   0.0000       3.495547        95.1187 
 163   0.0000       3.558833        96.8408 
 164   0.0000       3.573165        97.2308 
 165   0.0000       3.580566        97.4322 
 166   0.0000       3.589717        97.6812 
 167   0.0000       3.592618        97.7601 
 168   0.0000       3.732579       101.5686 
 169   0.0000       3.732745       101.5731 
 170   0.0000       3.745237       101.9131 
 171   0.0000       3.769910       102.5845 
 172   0.0000       3.863990       105.1445 
 173   0.0000       3.882117       105.6378 
 174   0.0000       3.907778       106.3361 
 175   0.0000       3.967885       107.9716 
 176   0.0000       4.446618       120.9986 
 177   0.0000       4.447396       121.0198 
 178   0.0000       4.487484       122.1106 
 179   0.0000       4.514877       122.8560 
 180   0.0000       4.570608       124.3726 
 181   0.0000       4.805168       130.7553 
 182   0.0000       4.807615       130.8219 
 183   0.0000       4.914730       133.7366 
 184   0.0000       4.954604       134.8216 
 185   0.0000       4.954628       134.8223 
 186   0.0000       5.274901       143.5373 
 187   0.0000       5.274930       143.5381 
 188   0.0000       5.479713       149.1106 
 189   0.0000       5.510934       149.9601 
 190   0.0000       6.100827       166.0119 
 191   0.0000       6.102714       166.0633 
 192   0.0000       6.222461       169.3218 
 193   0.0000       6.614918       180.0011 
 194   0.0000       6.653426       181.0489 
 195   0.0000       6.722139       182.9187 
 196   0.0000       6.780033       184.4941 
 197   0.0000       6.783729       184.5946 
 198   0.0000       6.949121       189.0952 
 199   0.0000       7.113858       193.5779 
 200   0.0000       7.138740       194.2550 
 201   0.0000       7.304709       198.7712 
 202   0.0000       7.305080       198.7813 
 203   0.0000       7.773162       211.5185 
 204   0.0000       7.863729       213.9829 
 205   0.0000       7.892354       214.7619 
 206   0.0000       7.926674       215.6958 
 207   0.0000       8.827214       240.2007 
 208   0.0000       9.046429       246.1658 
 209   0.0000       9.094672       247.4786 
 210   0.0000       9.101742       247.6710 
 211   0.0000       9.102120       247.6813 
 212   0.0000       9.178247       249.7528 
 213   0.0000       9.178273       249.7535 
 214   0.0000       9.197409       250.2742 
 215   0.0000       9.197410       250.2742 
 216   0.0000       9.292344       252.8575 
 217   0.0000       9.299690       253.0574 
 218   0.0000       9.300567       253.0813 
 219   0.0000       9.315400       253.4849 
 220   0.0000       9.428305       256.5572 
 221   0.0000       9.428326       256.5578 
 222   0.0000       9.667955       263.0784 
 223   0.0000      10.017815       272.5986 
 224   0.0000      10.017816       272.5986 
 225   0.0000      10.075788       274.1761 
 226   0.0000      10.094189       274.6768 
 227   0.0000      10.094191       274.6769 
 228   0.0000      10.095363       274.7088 
 229   0.0000      10.114876       275.2398 
 230   0.0000      10.154813       276.3265 
 231   0.0000      10.154815       276.3266 
 232   0.0000      10.528635       286.4987 
 233   0.0000      10.543498       286.9032 
 234   0.0000      10.701512       291.2030 
 235   0.0000      10.702468       291.2290 
 236   0.0000      10.823633       294.5260 
 237   0.0000      11.104750       302.1756 
 238   0.0000      11.104752       302.1757 
 239   0.0000      11.282618       307.0157 
 240   0.0000      11.286396       307.1184 
 241   0.0000      11.340212       308.5829 
 242   0.0000      11.340222       308.5831 
 243   0.0000      11.351045       308.8776 
 244   0.0000      11.408230       310.4337 
 245   0.0000      11.408241       310.4340 
 246   0.0000      11.622701       316.2698 
 247   0.0000      11.656985       317.2027 
 248   0.0000      12.019123       327.0570 
 249   0.0000      12.019157       327.0579 
 250   0.0000      12.159825       330.8857 
 251   0.0000      12.188375       331.6625 
 252   0.0000      12.560912       341.7998 
 253   0.0000      13.449188       365.9710 
 254   0.0000      13.493707       367.1824 
 255   0.0000      13.493936       367.1887 
 256   0.0000      14.195469       386.2784 
 257   0.0000      14.195554       386.2807 
 258   0.0000      14.405987       392.0068 
 259   0.0000      14.405990       392.0069 
 260   0.0000      15.077023       410.2667 
 261   0.0000      15.077934       410.2915 
 262   0.0000      15.252294       415.0360 
 263   0.0000      15.292128       416.1200 
 264   0.0000      15.689077       426.9215 
 265   0.0000      15.855119       431.4397 
 266   0.0000      15.884853       432.2488 
 267   0.0000      15.921575       433.2481 
 268   0.0000      16.755861       455.9502 
 269   0.0000      16.756113       455.9570 
 270   0.0000      17.500301       476.2074 
 271   0.0000      17.539607       477.2770 
 272   0.0000      18.457819       502.2628 
 273   0.0000      19.264049       524.2014 
 274   0.0000      20.129237       547.7444 
 275   0.0000      20.129331       547.7469 
 276   0.0000      20.504335       557.9513 
 277   0.0000      20.515724       558.2612 
 278   0.0000      21.884853       595.5171 
 279   0.0000      22.988352       625.5449 
 280   0.0000      25.963666       706.5073 
 281   0.0000      26.002217       707.5563 
 282   0.0000      27.561344       749.9823 
 283   0.0000      47.573153      1294.5313 
 284   0.0000      47.573304      1294.5354 
 285   0.0000      47.866151      1302.5042 
 286   0.0000      47.893996      1303.2619 
 287   0.0000      48.523107      1320.3809 
 288   0.0000      78.096100      2125.1029 
 289   0.0000     103.070468      2804.6900 

                 SPIN DOWN ORBITALS
  NO   OCC          E(Eh)            E(eV) 
   0   1.0000     -14.026603      -381.6833 
   1   1.0000      -6.589437      -179.3077 
   2   1.0000      -0.722051       -19.6480 
   3   1.0000      -0.317868        -8.6496 
   4   1.0000      -0.272389        -7.4121 
   5   0.0000      -0.247520        -6.7354 
   6   0.0000      -0.189614        -5.1597 
   7   0.0000      -0.023157        -0.6301 
   8   0.0000      -0.007254        -0.1974 
   9   0.0000       0.006735         0.1833 
  10   0.0000       0.014190         0.3861 
  11   0.0000       0.018999         0.5170 
  12   0.0000       0.019143         0.5209 
  13   0.0000       0.048570         1.3217 
  14   0.0000       0.049579         1.3491 
  15   0.0000       0.050167         1.3651 
  16   0.0000       0.058746         1.5986 
  17   0.0000       0.065240         1.7753 
  18   0.0000       0.066164         1.8004 
  19   0.0000       0.070959         1.9309 
  20   0.0000       0.075794         2.0624 
  21   0.0000       0.080722         2.1966 
  22   0.0000       0.097987         2.6664 
  23   0.0000       0.101212         2.7541 
  24   0.0000       0.103218         2.8087 
  25   0.0000       0.131547         3.5796 
  26   0.0000       0.132254         3.5988 
  27   0.0000       0.141467         3.8495 
  28   0.0000       0.150588         4.0977 
  29   0.0000       0.151159         4.1132 
  30   0.0000       0.152484         4.1493 
  31   0.0000       0.155542         4.2325 
  32   0.0000       0.179677         4.8893 
  33   0.0000       0.181720         4.9449 
  34   0.0000       0.183154         4.9839 
  35   0.0000       0.185865         5.0576 
  36   0.0000       0.187930         5.1138 
  37   0.0000       0.212922         5.7939 
  38   0.0000       0.216607         5.8942 
  39   0.0000       0.220705         6.0057 
  40   0.0000       0.222751         6.0614 
  41   0.0000       0.234543         6.3822 
  42   0.0000       0.236198         6.4273 
  43   0.0000       0.236918         6.4469 
  44   0.0000       0.238288         6.4841 
  45   0.0000       0.241115         6.5611 
  46   0.0000       0.243878         6.6363 
  47   0.0000       0.244867         6.6632 
  48   0.0000       0.250579         6.8186 
  49   0.0000       0.250912         6.8277 
  50   0.0000       0.309558         8.4235 
  51   0.0000       0.310983         8.4623 
  52   0.0000       0.324305         8.8248 
  53   0.0000       0.336463         9.1556 
  54   0.0000       0.339072         9.2266 
  55   0.0000       0.347669         9.4606 
  56   0.0000       0.353811         9.6277 
  57   0.0000       0.358135         9.7454 
  58   0.0000       0.364922         9.9300 
  59   0.0000       0.365697         9.9511 
  60   0.0000       0.367701        10.0057 
  61   0.0000       0.368062        10.0155 
  62   0.0000       0.371291        10.1033 
  63   0.0000       0.371611        10.1120 
  64   0.0000       0.376090        10.2339 
  65   0.0000       0.376250        10.2383 
  66   0.0000       0.399909        10.8821 
  67   0.0000       0.402904        10.9636 
  68   0.0000       0.405706        11.0398 
  69   0.0000       0.423408        11.5215 
  70   0.0000       0.426096        11.5947 
  71   0.0000       0.426655        11.6099 
  72   0.0000       0.427961        11.6454 
  73   0.0000       0.454941        12.3796 
  74   0.0000       0.482823        13.1383 
  75   0.0000       0.487552        13.2670 
  76   0.0000       0.489688        13.3251 
  77   0.0000       0.526557        14.3283 
  78   0.0000       0.557409        15.1679 
  79   0.0000       0.563401        15.3309 
  80   0.0000       0.573432        15.6039 
  81   0.0000       0.573951        15.6180 
  82   0.0000       0.578541        15.7429 
  83   0.0000       0.638644        17.3784 
  84   0.0000       0.641144        17.4464 
  85   0.0000       0.641585        17.4584 
  86   0.0000       0.642060        17.4713 
  87   0.0000       0.644548        17.5390 
  88   0.0000       0.645099        17.5540 
  89   0.0000       0.673895        18.3376 
  90   0.0000       0.674539        18.3551 
  91   0.0000       0.693568        18.8729 
  92   0.0000       0.720123        19.5955 
  93   0.0000       0.726126        19.7589 
  94   0.0000       0.743953        20.2440 
  95   0.0000       0.754058        20.5190 
  96   0.0000       0.756349        20.5813 
  97   0.0000       0.759378        20.6637 
  98   0.0000       0.767054        20.8726 
  99   0.0000       0.808761        22.0075 
 100   0.0000       0.809687        22.0327 
 101   0.0000       0.837622        22.7928 
 102   0.0000       0.837932        22.8013 
 103   0.0000       0.856263        23.3001 
 104   0.0000       0.886146        24.1133 
 105   0.0000       0.886474        24.1222 
 106   0.0000       0.900332        24.4993 
 107   0.0000       0.902520        24.5588 
 108   0.0000       0.932637        25.3784 
 109   0.0000       0.940730        25.5986 
 110   0.0000       0.972824        26.4719 
 111   0.0000       0.994716        27.0676 
 112   0.0000       1.004428        27.3319 
 113   0.0000       1.009128        27.4598 
 114   0.0000       1.052227        28.6326 
 115   0.0000       1.206908        32.8416 
 116   0.0000       1.211180        32.9579 
 117   0.0000       1.237546        33.6753 
 118   0.0000       1.249922        34.0121 
 119   0.0000       1.260131        34.2899 
 120   0.0000       1.377182        37.4750 
 121   0.0000       1.377972        37.4965 
 122   0.0000       1.433762        39.0146 
 123   0.0000       1.438839        39.1528 
 124   0.0000       1.508635        41.0520 
 125   0.0000       1.517147        41.2837 
 126   0.0000       1.518721        41.3265 
 127   0.0000       1.519211        41.3398 
 128   0.0000       1.522550        41.4307 
 129   0.0000       1.528250        41.5858 
 130   0.0000       1.541568        41.9482 
 131   0.0000       1.603091        43.6223 
 132   0.0000       1.765915        48.0530 
 133   0.0000       1.767144        48.0864 
 134   0.0000       1.769799        48.1587 
 135   0.0000       1.782179        48.4956 
 136   0.0000       1.782620        48.5076 
 137   0.0000       1.971646        53.6512 
 138   0.0000       1.979822        53.8737 
 139   0.0000       1.983505        53.9739 
 140   0.0000       2.043655        55.6107 
 141   0.0000       2.108812        57.3837 
 142   0.0000       2.112261        57.4775 
 143   0.0000       2.496271        67.9270 
 144   0.0000       2.504826        68.1598 
 145   0.0000       2.595581        70.6293 
 146   0.0000       2.877559        78.3024 
 147   0.0000       2.890051        78.6423 
 148   0.0000       2.895856        78.8002 
 149   0.0000       2.900942        78.9386 
 150   0.0000       2.920440        79.4692 
 151   0.0000       3.021193        82.2108 
 152   0.0000       3.043116        82.8074 
 153   0.0000       3.050006        82.9949 
 154   0.0000       3.172468        86.3272 
 155   0.0000       3.172989        86.3414 
 156   0.0000       3.222072        87.6770 
 157   0.0000       3.223320        87.7110 
 158   0.0000       3.235254        88.0357 
 159   0.0000       3.249014        88.4102 
 160   0.0000       3.374102        91.8140 
 161   0.0000       3.559260        96.8524 
 162   0.0000       3.564853        97.0046 
 163   0.0000       3.615935        98.3946 
 164   0.0000       3.629900        98.7746 
 165   0.0000       3.640101        99.0522 
 166   0.0000       3.655145        99.4615 
 167   0.0000       3.658165        99.5437 
 168   0.0000       3.800070       103.4052 
 169   0.0000       3.817222       103.8719 
 170   0.0000       3.834575       104.3441 
 171   0.0000       3.840944       104.5174 
 172   0.0000       3.916914       106.5847 
 173   0.0000       3.985586       108.4533 
 174   0.0000       4.006588       109.0248 
 175   0.0000       4.062689       110.5514 
 176   0.0000       4.502990       122.5326 
 177   0.0000       4.504835       122.5828 
 178   0.0000       4.559822       124.0791 
 179   0.0000       4.576953       124.5452 
 180   0.0000       4.645984       126.4237 
 181   0.0000       4.850260       131.9823 
 182   0.0000       4.855669       132.1295 
 183   0.0000       4.954901       134.8297 
 184   0.0000       5.009286       136.3096 
 185   0.0000       5.009908       136.3265 
 186   0.0000       5.321828       144.8143 
 187   0.0000       5.322854       144.8422 
 188   0.0000       5.535296       150.6231 
 189   0.0000       5.549055       150.9975 
 190   0.0000       6.145640       167.2314 
 191   0.0000       6.150975       167.3766 
 192   0.0000       6.270110       170.6184 
 193   0.0000       6.670486       181.5131 
 194   0.0000       6.687070       181.9644 
 195   0.0000       6.774516       184.3439 
 196   0.0000       6.841604       186.1695 
 197   0.0000       6.856338       186.5704 
 198   0.0000       6.998222       190.4313 
 199   0.0000       7.172914       195.1849 
 200   0.0000       7.185774       195.5348 
 201   0.0000       7.334919       199.5933 
 202   0.0000       7.336579       199.6385 
 203   0.0000       7.828365       213.0206 
 204   0.0000       7.921300       215.5495 
 205   0.0000       7.934415       215.9064 
 206   0.0000       7.974146       216.9876 
 207   0.0000       8.884816       241.7681 
 208   0.0000       9.114087       248.0069 
 209   0.0000       9.138639       248.6750 
 210   0.0000       9.139205       248.6904 
 211   0.0000       9.142050       248.7678 
 212   0.0000       9.233579       251.2584 
 213   0.0000       9.234523       251.2841 
 214   0.0000       9.253794       251.8085 
 215   0.0000       9.254325       251.8230 
 216   0.0000       9.344026       254.2639 
 217   0.0000       9.344383       254.2736 
 218   0.0000       9.353032       254.5089 
 219   0.0000       9.362595       254.7692 
 220   0.0000       9.520345       259.0618 
 221   0.0000       9.522194       259.1121 
 222   0.0000       9.727125       264.6885 
 223   0.0000      10.113329       275.1977 
 224   0.0000      10.115691       275.2620 
 225   0.0000      10.165859       276.6271 
 226   0.0000      10.174941       276.8742 
 227   0.0000      10.176024       276.9037 
 228   0.0000      10.204134       277.6686 
 229   0.0000      10.218102       278.0487 
 230   0.0000      10.218574       278.0615 
 231   0.0000      10.218976       278.0725 
 232   0.0000      10.573891       287.7302 
 233   0.0000      10.586185       288.0647 
 234   0.0000      10.799463       293.8683 
 235   0.0000      10.804928       294.0170 
 236   0.0000      10.874916       295.9215 
 237   0.0000      11.182479       304.2907 
 238   0.0000      11.186579       304.4023 
 239   0.0000      11.341356       308.6140 
 240   0.0000      11.346854       308.7636 
 241   0.0000      11.409242       310.4613 
 242   0.0000      11.409745       310.4749 
 243   0.0000      11.423818       310.8579 
 244   0.0000      11.467295       312.0410 
 245   0.0000      11.467963       312.0591 
 246   0.0000      11.681342       317.8655 
 247   0.0000      11.699779       318.3672 
 248   0.0000      12.080712       328.7329 
 249   0.0000      12.082533       328.7824 
 250   0.0000      12.242479       333.1348 
 251   0.0000      12.263791       333.7147 
 252   0.0000      12.621846       343.4579 
 253   0.0000      13.513222       367.7135 
 254   0.0000      13.554420       368.8345 
 255   0.0000      13.562171       369.0454 
 256   0.0000      14.276318       388.4784 
 257   0.0000      14.278091       388.5266 
 258   0.0000      14.469513       393.7355 
 259   0.0000      14.471415       393.7872 
 260   0.0000      15.129788       411.7025 
 261   0.0000      15.137228       411.9049 
 262   0.0000      15.319256       416.8581 
 263   0.0000      15.343054       417.5057 
 264   0.0000      15.740213       428.3130 
 265   0.0000      15.899900       432.6583 
 266   0.0000      15.944750       433.8787 
 267   0.0000      15.964330       434.4115 
 268   0.0000      16.817164       457.6183 
 269   0.0000      16.824249       457.8111 
 270   0.0000      17.556495       477.7365 
 271   0.0000      17.580765       478.3969 
 272   0.0000      18.498371       503.3663 
 273   0.0000      19.305727       525.3355 
 274   0.0000      20.158951       548.5529 
 275   0.0000      20.159882       548.5783 
 276   0.0000      20.549514       559.1807 
 277   0.0000      20.554931       559.3281 
 278   0.0000      21.925018       596.6101 
 279   0.0000      23.034529       626.8014 
 280   0.0000      26.015529       707.9185 
 281   0.0000      26.045557       708.7356 
 282   0.0000      27.595362       750.9080 
 283   0.0000      47.619748      1295.7992 
 284   0.0000      47.625613      1295.9588 
 285   0.0000      47.908097      1303.6456 
 286   0.0000      47.925463      1304.1181 
 287   0.0000      48.557960      1321.3293 
 288   0.0000      78.117068      2125.6735 
 289   0.0000     103.089136      2805.1980 

                    ********************************
                    * MULLIKEN POPULATION ANALYSIS *
                    ********************************

--------------------------------------------
MULLIKEN ATOMIC CHARGES AND SPIN POPULATIONS
--------------------------------------------
   0 B :    0.044842    1.140255
   1 N :   -0.044842    0.859745
Sum of atomic charges         :   -0.0000000
Sum of atomic spin populations:    2.0000000

-----------------------------------------------------
MULLIKEN REDUCED ORBITAL CHARGES AND SPIN POPULATIONS
-----------------------------------------------------
CHARGE
  0 B s       :     3.270971  s :     3.270971
      pz      :     0.653247  p :     1.605727
      px      :     0.659135
      py      :     0.293344
      dz2     :     0.017828  d :     0.067888
      dxz     :     0.034749
      dyz     :     0.015157
      dx2y2   :     0.000153
      dxy     :     0.000000
      f0      :     0.003138  f :     0.009301
      f+1     :     0.003926
      f-1     :     0.002190
      f+2     :     0.000017
      f-2     :     0.000000
      f+3     :     0.000018
      f-3     :     0.000012
      g0      :     0.000491  g :     0.001250
      g+1     :     0.000491
      g-1     :     0.000262
      g+2     :     0.000003
      g-2     :     0.000000
      g+3     :     0.000002
      g-3     :     0.000002
      g+4     :     0.000000
      g-4     :     0.000000
      h0      :     0.000024  h :     0.000022
      h+1     :    -0.000001
      h-1     :    -0.000000
      h+2     :     0.000000
      h-2     :     0.000000
      h+3     :    -0.000000
      h-3     :    -0.000000
      h+4     :     0.000000
      h-4     :    -0.000000
      h+5     :     0.000000
      h-5     :    -0.000000
  1 N s       :     3.818430  s :     3.818430
      pz      :     1.221661  p :     3.202707
      px      :     1.295964
      py      :     0.685082
      dz2     :     0.012459  d :     0.022848
      dxz     :     0.005782
      dyz     :     0.004250
      dx2y2   :     0.000357
      dxy     :     0.000000
      f0      :     0.001074  f :     0.000863
      f+1     :    -0.000110
      f-1     :    -0.000296
      f+2     :     0.000052
      f-2     :     0.000000
      f+3     :     0.000077
      f-3     :     0.000066
      g0      :     0.000093  g :    -0.000012
      g+1     :    -0.000052
      g-1     :    -0.000060
      g+2     :     0.000003
      g-2     :    -0.000000
      g+3     :     0.000003
      g-3     :     0.000002
      g+4     :     0.000001
      g-4     :     0.000000
      h0      :     0.000027  h :     0.000005
      h+1     :    -0.000012
      h-1     :    -0.000010
      h+2     :     0.000000
      h-2     :    -0.000000
      h+3     :    -0.000000
      h-3     :    -0.000000
      h+4     :     0.000000
      h-4     :     0.000000
      h+5     :     0.000000
      h-5     :     0.000000

SPIN
  0 B s       :     0.354986  s :     0.354986
      pz      :     0.449034  p :     0.775544
      px      :     0.033166
      py      :     0.293344
      dz2     :     0.002752  d :     0.006501
      dxz     :    -0.011493
      dyz     :     0.015157
      dx2y2   :     0.000084
      dxy     :     0.000000
      f0      :     0.000398  f :     0.002853
      f+1     :     0.000225
      f-1     :     0.002190
      f+2     :     0.000015
      f-2     :     0.000000
      f+3     :     0.000012
      f-3     :     0.000012
      g0      :     0.000058  g :     0.000370
      g+1     :     0.000044
      g-1     :     0.000262
      g+2     :     0.000003
      g-2     :     0.000000
      g+3     :     0.000002
      g-3     :     0.000002
      g+4     :    -0.000000
      g-4     :     0.000000
      h0      :     0.000004  h :     0.000002
      h+1     :    -0.000002
      h-1     :    -0.000000
      h+2     :    -0.000000
      h-2     :     0.000000
      h+3     :    -0.000000
      h-3     :    -0.000000
      h+4     :    -0.000000
      h-4     :    -0.000000
      h+5     :    -0.000000
      h-5     :    -0.000000
  1 N s       :     0.044192  s :     0.044192
      pz      :     0.139699  p :     0.801676
      px      :    -0.023104
      py      :     0.685082
      dz2     :     0.007938  d :     0.013514
      dxz     :     0.001098
      dyz     :     0.004250
      dx2y2   :     0.000227
      dxy     :     0.000000
      f0      :     0.000486  f :     0.000407
      f+1     :     0.000048
      f-1     :    -0.000296
      f+2     :     0.000038
      f-2     :     0.000000
      f+3     :     0.000065
      f-3     :     0.000066
      g0      :     0.000033  g :    -0.000054
      g+1     :    -0.000030
      g-1     :    -0.000060
      g+2     :     0.000000
      g-2     :    -0.000000
      g+3     :     0.000002
      g-3     :     0.000002
      g+4     :    -0.000001
      g-4     :     0.000000
      h0      :     0.000023  h :     0.000011
      h+1     :    -0.000002
      h-1     :    -0.000010
      h+2     :     0.000000
      h-2     :    -0.000000
      h+3     :    -0.000000
      h-3     :    -0.000000
      h+4     :    -0.000000
      h-4     :     0.000000
      h+5     :    -0.000000
      h-5     :     0.000000


                     *******************************
                     * LOEWDIN POPULATION ANALYSIS *
                     *******************************

-------------------------------------------
LOEWDIN ATOMIC CHARGES AND SPIN POPULATIONS
-------------------------------------------
   0 B :   -0.012503    1.034392
   1 N :    0.012503    0.965608

----------------------------------------------------
LOEWDIN REDUCED ORBITAL CHARGES AND SPIN POPULATIONS
----------------------------------------------------
CHARGE
  0 B s       :     2.775336  s :     2.775336
      pz      :     0.867733  p :     1.695325
      px      :     0.570982
      py      :     0.256610
      dz2     :     0.223928  d :     0.388054
      dxz     :     0.107951
      dyz     :     0.056039
      dx2y2   :     0.000136
      dxy     :     0.000000
      f0      :     0.052372  f :     0.121624
      f+1     :     0.043901
      f-1     :     0.025286
      f+2     :     0.000031
      f-2     :     0.000000
      f+3     :     0.000020
      f-3     :     0.000013
      g0      :     0.009149  g :     0.030015
      g+1     :     0.013272
      g-1     :     0.007577
      g+2     :     0.000011
      g-2     :     0.000000
      g+3     :     0.000003
      g-3     :     0.000003
      g+4     :     0.000000
      g-4     :     0.000000
      h0      :     0.000929  h :     0.002149
      h+1     :     0.000794
      h-1     :     0.000425
      h+2     :     0.000001
      h-2     :     0.000000
      h+3     :     0.000000
      h-3     :     0.000000
      h+4     :     0.000000
      h-4     :     0.000000
      h+5     :     0.000000
      h-5     :     0.000000
  1 N s       :     3.319623  s :     3.319623
      pz      :     1.582120  p :     3.410492
      px      :     1.201383
      py      :     0.626989
      dz2     :     0.117384  d :     0.173034
      dxz     :     0.038456
      dyz     :     0.016860
      dx2y2   :     0.000335
      dxy     :     0.000000
      f0      :     0.038048  f :     0.061686
      f+1     :     0.016432
      f-1     :     0.007007
      f+2     :     0.000064
      f-2     :     0.000000
      f+3     :     0.000073
      f-3     :     0.000063
      g0      :     0.010301  g :     0.018312
      g+1     :     0.005462
      g-1     :     0.002537
      g+2     :     0.000008
      g-2     :     0.000000
      g+3     :     0.000003
      g-3     :     0.000002
      g+4     :     0.000001
      g-4     :     0.000000
      h0      :     0.002519  h :     0.004350
      h+1     :     0.001241
      h-1     :     0.000587
      h+2     :     0.000002
      h-2     :     0.000000
      h+3     :     0.000000
      h-3     :     0.000000
      h+4     :     0.000000
      h-4     :     0.000000
      h+5     :     0.000000
      h-5     :     0.000000

SPIN
  0 B s       :     0.292929  s :     0.292929
      pz      :     0.376245  p :     0.658660
      px      :     0.025805
      py      :     0.256610
      dz2     :     0.002829  d :     0.047317
      dxz     :    -0.011624
      dyz     :     0.056039
      dx2y2   :     0.000072
      dxy     :     0.000000
      f0      :     0.002034  f :     0.027194
      f+1     :    -0.000178
      f-1     :     0.025286
      f+2     :     0.000023
      f-2     :     0.000000
      f+3     :     0.000014
      f-3     :     0.000013
      g0      :     0.000371  g :     0.007838
      g+1     :    -0.000123
      g-1     :     0.007577
      g+2     :     0.000008
      g-2     :     0.000000
      g+3     :     0.000003
      g-3     :     0.000003
      g+4     :    -0.000000
      g-4     :     0.000000
      h0      :     0.000037  h :     0.000455
      h+1     :    -0.000008
      h-1     :     0.000425
      h+2     :     0.000001
      h-2     :     0.000000
      h+3     :     0.000000
      h-3     :     0.000000
      h+4     :    -0.000000
      h-4     :     0.000000
      h+5     :    -0.000000
      h-5     :     0.000000
  1 N s       :     0.075298  s :     0.075298
      pz      :     0.158191  p :     0.764721
      px      :    -0.020459
      py      :     0.626989
      dz2     :     0.063815  d :     0.084499
      dxz     :     0.003611
      dyz     :     0.016860
      dx2y2   :     0.000213
      dxy     :     0.000000
      f0      :     0.020139  f :     0.029161
      f+1     :     0.001846
      f-1     :     0.007007
      f+2     :     0.000047
      f-2     :     0.000000
      f+3     :     0.000061
      f-3     :     0.000063
      g0      :     0.006169  g :     0.009525
      g+1     :     0.000813
      g-1     :     0.002537
      g+2     :     0.000003
      g-2     :     0.000000
      g+3     :     0.000002
      g-3     :     0.000002
      g+4     :    -0.000001
      g-4     :     0.000000
      h0      :     0.001547  h :     0.002404
      h+1     :     0.000269
      h-1     :     0.000587
      h+2     :     0.000001
      h-2     :     0.000000
      h+3     :     0.000000
      h-3     :     0.000000
      h+4     :    -0.000000
      h-4     :     0.000000
      h+5     :    -0.000000
      h-5     :     0.000000


                      *****************************
                      * MAYER POPULATION ANALYSIS *
                      *****************************

  NA   - Mulliken gross atomic population
  ZA   - Total nuclear charge
  QA   - Mulliken gross atomic charge
  VA   - Mayer's total valence
  BVA  - Mayer's bonded valence
  FA   - Mayer's free valence

  ATOM       NA         ZA         QA         VA         BVA        FA
  0 B      4.9552     5.0000     0.0448     3.0931     2.2952     0.7979
  1 N      7.0448     7.0000    -0.0448     2.7994     2.2952     0.5042

  Mayer bond orders larger than 0.1
B(  0-B ,  1-N ) :   2.2952 

-------
TIMINGS
-------

Total SCF time: 0 days 0 hours 6 min 12 sec 

Total time                  ....     372.391 sec
Sum of individual times     ....     371.340 sec  ( 99.7%)

Fock matrix formation       ....     369.155 sec  ( 99.1%)
  XC integration            ....       8.639 sec  (  2.3% of F)
    Basis function eval.    ....       0.631 sec  (  7.3% of XC)
    Density eval.           ....       1.664 sec  ( 19.3% of XC)
    XC-Functional eval.     ....       0.118 sec  (  1.4% of XC)
    XC-Potential eval.      ....       5.586 sec  ( 64.7% of XC)
Diagonalization             ....       0.845 sec  (  0.2%)
Density matrix formation    ....       0.015 sec  (  0.0%)
Population analysis         ....       0.056 sec  (  0.0%)
Initial guess               ....       0.363 sec  (  0.1%)
Orbital Transformation      ....       0.000 sec  (  0.0%)
Orbital Orthonormalization  ....       0.000 sec  (  0.0%)
DIIS solution               ....       0.671 sec  (  0.2%)
Grid generation             ....       0.236 sec  (  0.1%)

-------------------------   --------------------
FINAL SINGLE POINT ENERGY       -79.343756514301
-------------------------   --------------------


                            ***************************************
                            *     ORCA property calculations      *
                            ***************************************

                                    ---------------------
                                    Active property flags
                                    ---------------------
   (+) Dipole Moment


------------------------------------------------------------------------------
                       ORCA ELECTRIC PROPERTIES CALCULATION
------------------------------------------------------------------------------

Dipole Moment Calculation                       ... on
Quadrupole Moment Calculation                   ... off
Polarizability Calculation                      ... off
GBWName                                         ... bn_pbe_-0001_x.gbw
Electron density file                           ... bn_pbe_-0001_x.scfp.tmp
The origin for moment calculation is the CENTER OF MASS  = ( 0.000000,  0.000000  1.413223)

-------------
DIPOLE MOMENT
-------------
                                X             Y             Z
Electronic contribution:     -0.02278       0.00000      -1.31210
Nuclear contribution   :      0.00000       0.00000       0.56854
                        -----------------------------------------
Total Dipole Moment    :     -0.02278       0.00000      -0.74356
                        -----------------------------------------
Magnitude (a.u.)       :      0.74391
Magnitude (Debye)      :      1.89088



--------------------
Rotational spectrum 
--------------------
 
Rotational constants in cm-1:     0.000000     1.573778     1.573778 
Rotational constants in MHz :     0.000000 47180.691902 47180.691902 

 Dipole components along the rotational axes: 
x,y,z [a.u.] :    -0.743564     0.000000    -0.022784 
x,y,z [Debye]:    -1.889989     0.000000    -0.057911 

 

Timings for individual modules:

Sum of individual times         ...      386.849 sec (=   6.447 min)
GTO integral calculation        ...        7.234 sec (=   0.121 min)   1.9 %
SCF iterations                  ...      379.615 sec (=   6.327 min)  98.1 %
                             ****ORCA TERMINATED NORMALLY****
TOTAL RUN TIME: 0 days 0 hours 6 minutes 38 seconds 127 msec
