
                                 *****************
                                 * O   R   C   A *
                                 *****************

           --- An Ab Initio, DFT and Semiempirical electronic structure package ---

                  #######################################################
                  #                        -***-                        #
                  #          Department of theory and spectroscopy      #
                  #               Directorship: Frank Neese             #
                  #        Max Planck Institute fuer Kohlenforschung    #
                  #                Kaiser Wilhelm Platz 1               #
                  #                 D-45470 Muelheim/Ruhr               #
                  #                      Germany                        #
                  #                                                     #
                  #                  All rights reserved                #
                  #                        -***-                        #
                  #######################################################


                         Program Version 4.1.2  - RELEASE  -


 With contributions from (in alphabetic order):
   Daniel Aravena         : Magnetic Properties
   Michael Atanasov       : Ab Initio Ligand Field Theory
   Alexander A. Auer      : GIAO ZORA
   Ute Becker             : Parallelization
   Giovanni Bistoni       : ED, Open-shell LED
   Martin Brehm           : Molecular dynamics
   Dmytro Bykov           : SCF Hessian
   Vijay G. Chilkuri      : MRCI spin determinant printing
   Dipayan Datta          : RHF DLPNO-CCSD density
   Achintya Kumar Dutta   : EOM-CC, STEOM-CC
   Dmitry Ganyushin       : Spin-Orbit,Spin-Spin,Magnetic field MRCI
   Miquel Garcia          : C-PCM Hessian
   Yang Guo               : DLPNO-NEVPT2, CIM, IAO-localization
   Andreas Hansen         : Spin unrestricted coupled pair/coupled cluster methods
   Benjamin Helmich-Paris : CASSCF linear response (MC-RPA)
   Lee Huntington         : MR-EOM, pCC
   Robert Izsak           : Overlap fitted RIJCOSX, COSX-SCS-MP3, EOM
   Christian Kollmar      : KDIIS, OOCD, Brueckner-CCSD(T), CCSD density
   Simone Kossmann        : Meta GGA functionals, TD-DFT gradient, OOMP2, MP2 Hessian
   Martin Krupicka        : AUTO-CI
   Lucas Lang             : DCDCAS
   Dagmar Lenk            : GEPOL surface, SMD
   Dimitrios Liakos       : Extrapolation schemes; parallel MDCI
   Dimitrios Manganas     : ROCIS; embedding schemes
   Dimitrios Pantazis     : SARC Basis sets
   Taras Petrenko         : DFT Hessian,TD-DFT gradient, ASA, ECA, R-Raman, ABS, FL, XAS/XES, NRVS
   Peter Pinski           : DLPNO-MP2, DLPNO-MP2 Gradient
   Christoph Reimann      : Effective Core Potentials
   Marius Retegan         : Local ZFS, SOC
   Christoph Riplinger    : Optimizer, TS searches, QM/MM, DLPNO-CCSD(T), (RO)-DLPNO pert. Triples
   Tobias Risthaus        : Range-separated hybrids, TD-DFT gradient, RPA, STAB
   Michael Roemelt        : Restricted open shell CIS
   Masaaki Saitow         : Open-shell DLPNO
   Barbara Sandhoefer     : DKH picture change effects
   Avijit Sen             : IP-ROCIS
   Kantharuban Sivalingam : CASSCF convergence, NEVPT2, FIC-MRCI
   Bernardo de Souza      : ESD, SOC TD-DFT
   Georgi Stoychev        : AutoAux, RI-MP2 NMR
   Willem Van den Heuvel  : Paramagnetic NMR
   Boris Wezisla          : Elementary symmetry handling
   Frank Wennmohs         : Technical directorship


 We gratefully acknowledge several colleagues who have allowed us to
 interface, adapt or use parts of their codes:
   Stefan Grimme, W. Hujo, H. Kruse,             : VdW corrections, initial TS optimization,
                  C. Bannwarth                     DFT functionals, gCP, sTDA/sTD-DF
   Ed Valeev                                     : LibInt (2-el integral package), F12 methods
   Garnet Chan, S. Sharma, J. Yang, R. Olivares  : DMRG
   Ulf Ekstrom                                   : XCFun DFT Library
   Mihaly Kallay                                 : mrcc  (arbitrary order and MRCC methods)
   Andreas Klamt, Michael Diedenhofen            : otool_cosmo (COSMO solvation model)
   Jiri Pittner, Ondrej Demel                    : Mk-CCSD
   Frank Weinhold                                : gennbo (NPA and NBO analysis)
   Christopher J. Cramer and Donald G. Truhlar   : smd solvation model
   Lars Goerigk                                  : TD-DFT with DH, B97 family of functionals
   V. Asgeirsson, H. Jonsson                     : NEB implementation
   FAccTs GmbH                                   : IRC, NEB, NEB-TS, Multilevel


 Your calculation uses the libint2 library for the computation of 2-el integrals
 For citations please refer to: http://libint.valeyev.net

 This ORCA versions uses:
   CBLAS   interface :  Fast vector & matrix operations
   LAPACKE interface :  Fast linear algebra routines
   SCALAPACK package :  Parallel linear algebra routines


----- Orbital basis set information -----
Your calculation utilizes the basis: aug-pc-4
   H, C-F              : F. Jensen, J. Chem. Phys. 115, 9113 (2001).
                         F. Jensen, J. Chem. Phys. 116, 7372 (2002).
                         F. Jensen, J. Chem. Phys. 117, 9234 (2002).
   Si-Cl               : F. Jensen, T. Helgaker, J. Chem. Phys. 121, 3463 (2004).
   He-B, Ne-Mg, Al, Ar : F. Jensen, J. Phys. Chem. A 111, 11198 (2007).
   K, Ca, Ga-Kr        : F. Jensen, J. Chem. Phys. 136, 094110 (2012).
   Sc-Zn               : F. Jensen, J. Chem. Phys. 138, 014107 (2013).

================================================================================
                                        WARNINGS
                       Please study these warnings very carefully!
================================================================================


INFO   : the flag for use of LIBINT has been found!

================================================================================
                                       INPUT FILE
================================================================================
NAME = fh-oh_pbe_-0001_z.inp
|  1> !uks pbe nori aug-pc-4 grid5 nofinalgrid verytightscf
|  2> 
|  3> %maxcore 6000
|  4> 
|  5> %pal nprocs 4 end
|  6> 
|  7> %scf
|  8> 	efield 0.0, 0.0, -0.001
|  9> 	maxiter 200
| 10> end
| 11> 
| 12> * xyz 0 2
| 13> H 0.000000 0.000000 0.000000
| 14> F 0.000000 0.000000 0.927729
| 15> O 0.169084 0.000000 -1.803099
| 16> H 1.103782 0.000000 -2.068116
| 17> *
| 18> 
| 19>                          ****END OF INPUT****
================================================================================

                       ****************************
                       * Single Point Calculation *
                       ****************************

---------------------------------
CARTESIAN COORDINATES (ANGSTROEM)
---------------------------------
  H      0.000000    0.000000    0.000000
  F      0.000000    0.000000    0.927729
  O      0.169084    0.000000   -1.803099
  H      1.103782    0.000000   -2.068116

----------------------------
CARTESIAN COORDINATES (A.U.)
----------------------------
  NO LB      ZA    FRAG     MASS         X           Y           Z
   0 H     1.0000    0     1.008    0.000000    0.000000    0.000000
   1 F     9.0000    0    18.998    0.000000    0.000000    1.753154
   2 O     8.0000    0    15.999    0.319522    0.000000   -3.407363
   3 H     1.0000    0     1.008    2.085846    0.000000   -3.908173

--------------------------------
INTERNAL COORDINATES (ANGSTROEM)
--------------------------------
 H      0   0   0     0.000000000000     0.00000000     0.00000000
 F      1   0   0     0.927729000000     0.00000000     0.00000000
 O      1   2   0     1.811009498279   174.64280572     0.00000000
 H      3   1   2     0.971542259242   111.18693629     0.00000000

---------------------------
INTERNAL COORDINATES (A.U.)
---------------------------
 H      0   0   0     0.000000000000     0.00000000     0.00000000
 F      1   0   0     1.753153736497     0.00000000     0.00000000
 O      1   2   0     3.422311977678   174.64280572     0.00000000
 H      3   1   2     1.835948797498   111.18693629     0.00000000

---------------------
BASIS SET INFORMATION
---------------------
There are 3 groups of distinct atoms

 Group   1 Type H   : 12s7p4d3f2g contracted to 8s7p4d3f2g pattern {51111111/1111111/1111/111/11}
 Group   2 Type F   : 27s12p7d4f3g2h contracted to 9s8p7d4f3g2h pattern {1191111111/51111111/1111111/1111/111/11}
 Group   3 Type O   : 27s12p7d4f3g2h contracted to 9s8p7d4f3g2h pattern {1191111111/51111111/1111111/1111/111/11}

Atom   0H    basis set group =>   1
Atom   1F    basis set group =>   2
Atom   2O    basis set group =>   3
Atom   3H    basis set group =>   1


           ************************************************************
           *        Program running with 4 parallel MPI-processes     *
           *              working on a common directory               *
           ************************************************************
------------------------------------------------------------------------------
                           ORCA GTO INTEGRAL CALCULATION
------------------------------------------------------------------------------

                         BASIS SET STATISTICS AND STARTUP INFO

 # of primitive gaussian shells          ...  166
 # of primitive gaussian functions       ...  534
 # of contracted shells                  ...  114
 # of contracted basis functions         ...  466
 Highest angular momentum                ...    5
 Maximum contraction depth               ...   11
 Integral package used                   ... LIBINT
 Integral threshhold            Thresh   ...  1.000e-12
 Primitive cut-off              TCut     ...  1.000e-14


------------------------------ INTEGRAL EVALUATION ----------------------------


 * One electron integrals 
 Pre-screening matrix                    ... done
 Shell pair data                         ... done (   0.002 sec)


An Electric Field will be added: 0.000e+00 0.000e+00 -1.000e-03 au

  ... done adding electric field perturbation



           ************************************************************
           *        Program running with 4 parallel MPI-processes     *
           *              working on a common directory               *
           ************************************************************
-------------------------------------------------------------------------------
                                 ORCA SCF
-------------------------------------------------------------------------------

------------
SCF SETTINGS
------------
Hamiltonian:
 Density Functional     Method          .... DFT(GTOs)
 Exchange Functional    Exchange        .... PBE
   PBE kappa parameter   XKappa         ....  0.804000
   PBE mue parameter    XMuePBE         ....  0.219520
 Correlation Functional Correlation     .... PBE
   PBE beta parameter  CBetaPBE         ....  0.066725
 LDA part of GGA corr.  LDAOpt          .... PW91-LDA
 Gradients option       PostSCFGGA      .... off
   Density functional embedding theory  .... OFF
   NL short-range parameter             ....  6.400000


General Settings:
 Integral files         IntName         .... fh-oh_pbe_-0001_z
 Hartree-Fock type      HFTyp           .... UHF
 Total Charge           Charge          ....    0
 Multiplicity           Mult            ....    2
 Number of Electrons    NEL             ....   19
 Basis Dimension        Dim             ....  466
 Nuclear Repulsion      ENuc            ....     27.4714926964 Eh

Convergence Acceleration:
 DIIS                   CNVDIIS         .... on
   Start iteration      DIISMaxIt       ....    12
   Startup error        DIISStart       ....  0.200000
   # of expansion vecs  DIISMaxEq       ....     5
   Bias factor          DIISBfac        ....   1.050
   Max. coefficient     DIISMaxC        ....  10.000
 Newton-Raphson         CNVNR           .... off
 SOSCF                  CNVSOSCF        .... off
 Level Shifting         CNVShift        .... on
   Level shift para.    LevelShift      ....    0.2500
   Turn off err/grad.   ShiftErr        ....    0.0010
 Zerner damping         CNVZerner       .... off
 Static damping         CNVDamp         .... on
   Fraction old density DampFac         ....    0.7000
   Max. Damping (<1)    DampMax         ....    0.9800
   Min. Damping (>=0)   DampMin         ....    0.0000
   Turn off err/grad.   DampErr         ....    0.1000
 Fernandez-Rico         CNVRico         .... off

SCF Procedure:
 Maximum # iterations   MaxIter         ....   200
 SCF integral mode      SCFMode         .... Direct
   Integral package                     .... LIBINT
 Reset frequency        DirectResetFreq ....    20
 Integral Threshold     Thresh          ....  1.000e-12 Eh
 Primitive CutOff       TCut            ....  1.000e-14 Eh

Convergence Tolerance:
 Convergence Check Mode ConvCheckMode   .... Total+1el-Energy
 Convergence forced     ConvForced      .... 0
 Energy Change          TolE            ....  1.000e-09 Eh
 1-El. energy change                    ....  1.000e-06 Eh
 DIIS Error             TolErr          ....  1.000e-08


Diagonalization of the overlap matrix:
Smallest eigenvalue                        ... 1.255e-06
Time for diagonalization                   ...    0.048 sec
Threshold for overlap eigenvalues          ... 1.000e-08
Number of eigenvalues below threshold      ... 0
Time for construction of square roots      ...    0.035 sec
Total time needed                          ...    0.084 sec

-------------------
DFT GRID GENERATION
-------------------

General Integration Accuracy     IntAcc      ...  5.010
Radial Grid Type                 RadialGrid  ... Gauss-Chebyshev
Angular Grid (max. acc.)         AngularGrid ... Lebedev-434
Angular grid pruning method      GridPruning ... 3 (G Style)
Weight generation scheme         WeightScheme... Becke
Basis function cutoff            BFCut       ...    1.0000e-12
Integration weight cutoff        WCut        ...    1.0000e-14
Grids for H and He will be reduced by one unit

# of grid points (after initial pruning)     ...  35044 (   0.0 sec)
# of grid points (after weights+screening)   ...  34560 (   0.0 sec)
nearest neighbour list constructed           ...    0.0 sec
Grid point re-assignment to atoms done       ...    0.0 sec
Grid point division into batches done        ...    0.2 sec
Reduced shell lists constructed in    0.3 sec

Total number of grid points                  ...    34560
Total number of batches                      ...      543
Average number of points per batch           ...       63
Average number of grid points per atom       ...     8640
Average number of shells per batch           ...    79.20 (69.48%)
Average number of basis functions per batch  ...   337.18 (72.36%)
Average number of large shells per batch     ...    69.94 (88.31%)
Average number of large basis fcns per batch ...   299.27 (88.76%)
Maximum spatial batch extension              ...  14.02, 13.43, 13.76 au
Average spatial batch extension              ...   0.88,  0.86,  0.72 au

Time for grid setup =    0.363 sec

------------------------------
INITIAL GUESS: MODEL POTENTIAL
------------------------------
Loading Hartree-Fock densities                     ... done
Calculating cut-offs                               ... done
Setting up the integral package                    ... done
Initializing the effective Hamiltonian             ... done
Starting the Coulomb interaction                   ... done (   0.0 sec)
Reading the grid                                   ... done
Mapping shells                                     ... done
Starting the XC term evaluation                    ... done (   0.6 sec)
  promolecular density results
     # of electrons  =     18.999023143
     EX              =    -18.655804200
     EC              =     -0.616543038
     EX+EC           =    -19.272347239
Transforming the Hamiltonian                       ... done (   0.0 sec)
Diagonalizing the Hamiltonian                      ... done (   0.0 sec)
Back transforming the eigenvectors                 ... done (   0.0 sec)
Now organizing SCF variables                       ... done
                      ------------------
                      INITIAL GUESS DONE (   1.2 sec)
                      ------------------
--------------
SCF ITERATIONS
--------------
ITER       Energy         Delta-E        Max-DP      RMS-DP      [F,P]     Damp
               ***  Starting incremental Fock matrix formation  ***
  0   -176.0537390014   0.000000000000 0.00869356  0.00009860  0.2135179 0.7000
  1   -176.0789083215  -0.025169320091 0.00591239  0.00006258  0.0644921 0.7000
                               ***Turning on DIIS***
  2   -176.0864897911  -0.007581469626 0.01094239  0.00009697  0.0160645 0.0000
  3   -176.1027446055  -0.016254814377 0.00252439  0.00003307  0.0352122 0.0000
  4   -176.1046117607  -0.001867155192 0.00105727  0.00001211  0.0094753 0.0000
  5   -176.1047131177  -0.000101356959 0.00045215  0.00000397  0.0036136 0.0000
  6   -176.1047274889  -0.000014371241 0.00026184  0.00000291  0.0003638 0.0000
  7   -176.1047291897  -0.000001700787 0.00003927  0.00000052  0.0003183 0.0000
  8   -176.1047293809  -0.000000191237 0.00001794  0.00000017  0.0000625 0.0000
  9   -176.1047294006  -0.000000019663 0.00000359  0.00000004  0.0000127 0.0000
 10   -176.1047294021  -0.000000001503 0.00000188  0.00000002  0.0000044 0.0000
 11   -176.1047294023  -0.000000000166 0.00000479  0.00000002  0.0000015 0.0000
 12   -176.1047294023  -0.000000000019 0.00000545  0.00000003  0.0000004 0.0000
                 **** Energy Check signals convergence ****

               *****************************************************
               *                     SUCCESS                       *
               *           SCF CONVERGED AFTER  13 CYCLES          *
               *****************************************************


----------------
TOTAL SCF ENERGY
----------------

Total Energy       :         -176.10472940 Eh           -4792.05331 eV

Components:
Nuclear Repulsion  :           27.47149270 Eh             747.53732 eV
Electronic Energy  :         -203.57622210 Eh           -5539.59063 eV
One Electron Energy:         -298.75282862 Eh           -8129.47776 eV
Two Electron Energy:           95.17660652 Eh            2589.88713 eV

Virial components:
Potential Energy   :         -351.72864720 Eh           -9571.02307 eV
Kinetic Energy     :          175.62391780 Eh            4778.96976 eV
Virial Ratio       :            2.00273773


DFT components:
N(Alpha)           :       10.000000980706 electrons
N(Beta)            :        9.000000898414 electrons
N(Total)           :       19.000001879120 electrons
E(X)               :      -18.908960933248 Eh       
E(C)               :       -0.617651295214 Eh       
E(XC)              :      -19.526612228461 Eh       
DFET-embed. en.    :        0.000000000000 Eh       

---------------
SCF CONVERGENCE
---------------

  Last Energy change         ...   -1.8474e-12  Tolerance :   1.0000e-09
  Last MAX-Density change    ...    6.3588e-06  Tolerance :   1.0000e-08
  Last RMS-Density change    ...    4.7039e-08  Tolerance :   1.0000e-09
  Last DIIS Error            ...    8.5812e-08  Tolerance :   1.0000e-08

             **** THE GBW FILE WAS UPDATED (fh-oh_pbe_-0001_z.gbw) ****
             **** DENSITY FILE WAS UPDATED (fh-oh_pbe_-0001_z.scfp.tmp) ****
             **** ENERGY FILE WAS UPDATED (fh-oh_pbe_-0001_z.en.tmp) ****
----------------------
UHF SPIN CONTAMINATION
----------------------

Warning: in a DFT calculation there is little theoretical justification to 
         calculate <S**2> as in Hartree-Fock theory. We will do it anyways
         but you should keep in mind that the values have only limited relevance

Expectation value of <S**2>     :     0.752391
Ideal value S*(S+1) for S=0.5   :     0.750000
Deviation                       :     0.002391

----------------
ORBITAL ENERGIES
----------------
                 SPIN UP ORBITALS
  NO   OCC          E(Eh)            E(eV) 
   0   1.0000     -24.223864      -659.1648 
   1   1.0000     -18.871159      -513.5103 
   2   1.0000      -1.075313       -29.2608 
   3   1.0000      -0.977606       -26.6020 
   4   1.0000      -0.487405       -13.2630 
   5   1.0000      -0.456500       -12.4220 
   6   1.0000      -0.408147       -11.1062 
   7   1.0000      -0.340018        -9.2524 
   8   1.0000      -0.331067        -9.0088 
   9   1.0000      -0.329249        -8.9593 
  10   0.0000      -0.045750        -1.2449 
  11   0.0000       0.008590         0.2337 
  12   0.0000       0.022191         0.6039 
  13   0.0000       0.023366         0.6358 
  14   0.0000       0.034132         0.9288 
  15   0.0000       0.049076         1.3354 
  16   0.0000       0.056855         1.5471 
  17   0.0000       0.061234         1.6663 
  18   0.0000       0.061358         1.6696 
  19   0.0000       0.079539         2.1644 
  20   0.0000       0.082815         2.2535 
  21   0.0000       0.097191         2.6447 
  22   0.0000       0.107683         2.9302 
  23   0.0000       0.112275         3.0552 
  24   0.0000       0.116347         3.1660 
  25   0.0000       0.129972         3.5367 
  26   0.0000       0.138682         3.7737 
  27   0.0000       0.142894         3.8883 
  28   0.0000       0.151552         4.1239 
  29   0.0000       0.156925         4.2702 
  30   0.0000       0.166208         4.5228 
  31   0.0000       0.167423         4.5558 
  32   0.0000       0.189048         5.1442 
  33   0.0000       0.195586         5.3222 
  34   0.0000       0.205174         5.5831 
  35   0.0000       0.208663         5.6780 
  36   0.0000       0.217273         5.9123 
  37   0.0000       0.223084         6.0704 
  38   0.0000       0.223604         6.0846 
  39   0.0000       0.226961         6.1759 
  40   0.0000       0.232046         6.3143 
  41   0.0000       0.247184         6.7262 
  42   0.0000       0.248819         6.7707 
  43   0.0000       0.254482         6.9248 
  44   0.0000       0.267750         7.2859 
  45   0.0000       0.270631         7.3642 
  46   0.0000       0.287903         7.8342 
  47   0.0000       0.295948         8.0531 
  48   0.0000       0.311668         8.4809 
  49   0.0000       0.316667         8.6170 
  50   0.0000       0.319290         8.6883 
  51   0.0000       0.331999         9.0342 
  52   0.0000       0.344330         9.3697 
  53   0.0000       0.360244         9.8027 
  54   0.0000       0.365872         9.9559 
  55   0.0000       0.367430         9.9983 
  56   0.0000       0.368966        10.0401 
  57   0.0000       0.377919        10.2837 
  58   0.0000       0.385887        10.5005 
  59   0.0000       0.388959        10.5841 
  60   0.0000       0.397943        10.8286 
  61   0.0000       0.416946        11.3457 
  62   0.0000       0.417960        11.3733 
  63   0.0000       0.420009        11.4290 
  64   0.0000       0.429853        11.6969 
  65   0.0000       0.445401        12.1200 
  66   0.0000       0.451635        12.2896 
  67   0.0000       0.456249        12.4152 
  68   0.0000       0.466128        12.6840 
  69   0.0000       0.476182        12.9576 
  70   0.0000       0.484968        13.1967 
  71   0.0000       0.485491        13.2109 
  72   0.0000       0.492299        13.3961 
  73   0.0000       0.497793        13.5456 
  74   0.0000       0.500823        13.6281 
  75   0.0000       0.504521        13.7287 
  76   0.0000       0.517328        14.0772 
  77   0.0000       0.520961        14.1761 
  78   0.0000       0.529939        14.4204 
  79   0.0000       0.535111        14.5611 
  80   0.0000       0.537949        14.6383 
  81   0.0000       0.555952        15.1282 
  82   0.0000       0.565476        15.3874 
  83   0.0000       0.573769        15.6130 
  84   0.0000       0.580856        15.8059 
  85   0.0000       0.585484        15.9318 
  86   0.0000       0.592295        16.1172 
  87   0.0000       0.607953        16.5432 
  88   0.0000       0.613006        16.6808 
  89   0.0000       0.621834        16.9210 
  90   0.0000       0.631898        17.1948 
  91   0.0000       0.638544        17.3757 
  92   0.0000       0.653497        17.7825 
  93   0.0000       0.661060        17.9884 
  94   0.0000       0.680089        18.5062 
  95   0.0000       0.682652        18.5759 
  96   0.0000       0.716706        19.5026 
  97   0.0000       0.717988        19.5374 
  98   0.0000       0.727680        19.8012 
  99   0.0000       0.733475        19.9589 
 100   0.0000       0.740637        20.1537 
 101   0.0000       0.743599        20.2344 
 102   0.0000       0.752286        20.4708 
 103   0.0000       0.761785        20.7292 
 104   0.0000       0.762908        20.7598 
 105   0.0000       0.767526        20.8855 
 106   0.0000       0.779704        21.2168 
 107   0.0000       0.787700        21.4344 
 108   0.0000       0.793825        21.6011 
 109   0.0000       0.807516        21.9736 
 110   0.0000       0.815506        22.1910 
 111   0.0000       0.841167        22.8893 
 112   0.0000       0.847916        23.0730 
 113   0.0000       0.857140        23.3240 
 114   0.0000       0.861278        23.4366 
 115   0.0000       0.870381        23.6843 
 116   0.0000       0.882068        24.0023 
 117   0.0000       0.904901        24.6236 
 118   0.0000       0.905900        24.6508 
 119   0.0000       0.916612        24.9423 
 120   0.0000       0.940651        25.5964 
 121   0.0000       0.941035        25.6069 
 122   0.0000       0.951562        25.8933 
 123   0.0000       0.956558        26.0293 
 124   0.0000       0.974438        26.5158 
 125   0.0000       0.976225        26.5644 
 126   0.0000       0.984767        26.7969 
 127   0.0000       0.997119        27.1330 
 128   0.0000       0.998636        27.1743 
 129   0.0000       1.019045        27.7296 
 130   0.0000       1.025298        27.8998 
 131   0.0000       1.035598        28.1801 
 132   0.0000       1.042081        28.3565 
 133   0.0000       1.043910        28.4062 
 134   0.0000       1.051667        28.6173 
 135   0.0000       1.060175        28.8488 
 136   0.0000       1.072936        29.1961 
 137   0.0000       1.077754        29.3272 
 138   0.0000       1.083284        29.4776 
 139   0.0000       1.103450        30.0264 
 140   0.0000       1.103585        30.0301 
 141   0.0000       1.126333        30.6491 
 142   0.0000       1.136556        30.9273 
 143   0.0000       1.163231        31.6531 
 144   0.0000       1.175499        31.9870 
 145   0.0000       1.183023        32.1917 
 146   0.0000       1.192290        32.4438 
 147   0.0000       1.196004        32.5449 
 148   0.0000       1.203383        32.7457 
 149   0.0000       1.215906        33.0865 
 150   0.0000       1.218309        33.1519 
 151   0.0000       1.236520        33.6474 
 152   0.0000       1.258307        34.2403 
 153   0.0000       1.288960        35.0744 
 154   0.0000       1.328220        36.1427 
 155   0.0000       1.328276        36.1442 
 156   0.0000       1.344420        36.5835 
 157   0.0000       1.348776        36.7021 
 158   0.0000       1.353181        36.8219 
 159   0.0000       1.368018        37.2257 
 160   0.0000       1.385906        37.7124 
 161   0.0000       1.388225        37.7755 
 162   0.0000       1.412400        38.4334 
 163   0.0000       1.434810        39.0432 
 164   0.0000       1.460129        39.7321 
 165   0.0000       1.461446        39.7680 
 166   0.0000       1.483979        40.3811 
 167   0.0000       1.491934        40.5976 
 168   0.0000       1.511484        41.1296 
 169   0.0000       1.546703        42.0879 
 170   0.0000       1.575385        42.8684 
 171   0.0000       1.579983        42.9935 
 172   0.0000       1.582419        43.0598 
 173   0.0000       1.624492        44.2047 
 174   0.0000       1.634202        44.4689 
 175   0.0000       1.653203        44.9859 
 176   0.0000       1.694051        46.0975 
 177   0.0000       1.728580        47.0370 
 178   0.0000       1.746849        47.5342 
 179   0.0000       1.759278        47.8724 
 180   0.0000       1.782838        48.5135 
 181   0.0000       1.802529        49.0493 
 182   0.0000       1.849475        50.3268 
 183   0.0000       1.884498        51.2798 
 184   0.0000       1.895809        51.5876 
 185   0.0000       1.928113        52.4666 
 186   0.0000       1.991774        54.1989 
 187   0.0000       2.024226        55.0820 
 188   0.0000       2.076463        56.5034 
 189   0.0000       2.106701        57.3262 
 190   0.0000       2.168989        59.0212 
 191   0.0000       2.202161        59.9238 
 192   0.0000       2.243959        61.0612 
 193   0.0000       2.273765        61.8723 
 194   0.0000       2.303247        62.6745 
 195   0.0000       2.314177        62.9720 
 196   0.0000       2.374760        64.6205 
 197   0.0000       2.375981        64.6537 
 198   0.0000       2.398393        65.2636 
 199   0.0000       2.399790        65.3016 
 200   0.0000       2.417594        65.7861 
 201   0.0000       2.423287        65.9410 
 202   0.0000       2.482562        67.5539 
 203   0.0000       2.517661        68.5090 
 204   0.0000       2.584544        70.3290 
 205   0.0000       2.639696        71.8298 
 206   0.0000       2.663565        72.4793 
 207   0.0000       2.777805        75.5879 
 208   0.0000       2.830390        77.0188 
 209   0.0000       2.846134        77.4472 
 210   0.0000       2.879158        78.3459 
 211   0.0000       2.912728        79.2594 
 212   0.0000       2.932755        79.8043 
 213   0.0000       2.990711        81.3814 
 214   0.0000       3.163103        86.0724 
 215   0.0000       3.252390        88.5020 
 216   0.0000       3.321564        90.3843 
 217   0.0000       3.358225        91.3819 
 218   0.0000       3.389061        92.2210 
 219   0.0000       3.404455        92.6399 
 220   0.0000       3.421531        93.1046 
 221   0.0000       3.444832        93.7386 
 222   0.0000       3.497692        95.1770 
 223   0.0000       3.525193        95.9254 
 224   0.0000       3.562977        96.9535 
 225   0.0000       3.591265        97.7233 
 226   0.0000       3.594542        97.8124 
 227   0.0000       3.655681        99.4761 
 228   0.0000       3.711366       100.9914 
 229   0.0000       3.724555       101.3503 
 230   0.0000       3.748517       102.0023 
 231   0.0000       3.883909       105.6865 
 232   0.0000       3.923642       106.7677 
 233   0.0000       3.936194       107.1093 
 234   0.0000       3.938137       107.1622 
 235   0.0000       3.956338       107.6574 
 236   0.0000       4.047316       110.1331 
 237   0.0000       4.111666       111.8841 
 238   0.0000       4.115643       111.9923 
 239   0.0000       4.227020       115.0231 
 240   0.0000       4.230507       115.1180 
 241   0.0000       4.266401       116.0947 
 242   0.0000       4.311152       117.3124 
 243   0.0000       4.468933       121.6058 
 244   0.0000       4.507610       122.6583 
 245   0.0000       4.530095       123.2701 
 246   0.0000       4.573669       124.4559 
 247   0.0000       4.622604       125.7875 
 248   0.0000       4.735965       128.8722 
 249   0.0000       4.895806       133.2216 
 250   0.0000       4.932087       134.2089 
 251   0.0000       5.025374       136.7474 
 252   0.0000       5.204344       141.6174 
 253   0.0000       5.243157       142.6736 
 254   0.0000       5.270515       143.4180 
 255   0.0000       5.280308       143.6845 
 256   0.0000       5.369828       146.1205 
 257   0.0000       5.419813       147.4806 
 258   0.0000       5.424467       147.6073 
 259   0.0000       5.493773       149.4932 
 260   0.0000       5.547437       150.9534 
 261   0.0000       5.576979       151.7573 
 262   0.0000       5.590898       152.1361 
 263   0.0000       5.616215       152.8250 
 264   0.0000       5.729667       155.9122 
 265   0.0000       5.796044       157.7184 
 266   0.0000       6.001988       163.3224 
 267   0.0000       6.002923       163.3478 
 268   0.0000       6.072632       165.2447 
 269   0.0000       6.131691       166.8518 
 270   0.0000       6.180497       168.1799 
 271   0.0000       6.198661       168.6741 
 272   0.0000       6.199690       168.7021 
 273   0.0000       6.203276       168.7997 
 274   0.0000       6.304565       171.5559 
 275   0.0000       6.346595       172.6996 
 276   0.0000       6.518790       177.3853 
 277   0.0000       6.546413       178.1370 
 278   0.0000       6.641397       180.7216 
 279   0.0000       6.656756       181.1395 
 280   0.0000       6.860255       186.6770 
 281   0.0000       7.015325       190.8967 
 282   0.0000       7.122347       193.8089 
 283   0.0000       7.132700       194.0906 
 284   0.0000       7.157448       194.7641 
 285   0.0000       7.158307       194.7874 
 286   0.0000       7.282359       198.1631 
 287   0.0000       7.315930       199.0766 
 288   0.0000       7.363062       200.3591 
 289   0.0000       7.392243       201.1532 
 290   0.0000       7.408591       201.5980 
 291   0.0000       7.416906       201.8243 
 292   0.0000       7.443816       202.5565 
 293   0.0000       7.601553       206.8488 
 294   0.0000       8.233240       224.0378 
 295   0.0000       8.297387       225.7834 
 296   0.0000       8.330422       226.6823 
 297   0.0000       8.343562       227.0399 
 298   0.0000       8.346687       227.1249 
 299   0.0000       8.398698       228.5402 
 300   0.0000       8.533875       232.2185 
 301   0.0000       8.765985       238.5346 
 302   0.0000       8.771032       238.6719 
 303   0.0000       8.812463       239.7993 
 304   0.0000       8.861618       241.1369 
 305   0.0000       9.001824       244.9521 
 306   0.0000       9.093861       247.4566 
 307   0.0000       9.122145       248.2262 
 308   0.0000       9.200520       250.3589 
 309   0.0000       9.326157       253.7776 
 310   0.0000       9.395866       255.6745 
 311   0.0000       9.603355       261.3206 
 312   0.0000       9.751758       265.3588 
 313   0.0000       9.995025       271.9785 
 314   0.0000      10.349081       281.6128 
 315   0.0000      10.494587       285.5722 
 316   0.0000      10.645661       289.6832 
 317   0.0000      10.665002       290.2095 
 318   0.0000      10.774951       293.2013 
 319   0.0000      10.894686       296.4595 
 320   0.0000      11.080050       301.5035 
 321   0.0000      11.275518       306.8224 
 322   0.0000      11.479051       312.3609 
 323   0.0000      11.632540       316.5375 
 324   0.0000      11.676774       317.7412 
 325   0.0000      11.707825       318.5861 
 326   0.0000      11.746787       319.6463 
 327   0.0000      11.784747       320.6793 
 328   0.0000      11.894605       323.6687 
 329   0.0000      11.910713       324.1070 
 330   0.0000      11.920063       324.3614 
 331   0.0000      11.972126       325.7781 
 332   0.0000      12.010605       326.8252 
 333   0.0000      12.053726       327.9986 
 334   0.0000      12.056235       328.0668 
 335   0.0000      12.061343       328.2058 
 336   0.0000      12.095992       329.1487 
 337   0.0000      12.285622       334.3088 
 338   0.0000      12.302993       334.7815 
 339   0.0000      12.328092       335.4644 
 340   0.0000      12.415828       337.8519 
 341   0.0000      12.508925       340.3852 
 342   0.0000      12.529394       340.9421 
 343   0.0000      12.555072       341.6409 
 344   0.0000      12.622229       343.4683 
 345   0.0000      12.625121       343.5470 
 346   0.0000      12.665206       344.6378 
 347   0.0000      12.665319       344.6409 
 348   0.0000      12.714264       345.9727 
 349   0.0000      12.719310       346.1100 
 350   0.0000      12.719324       346.1104 
 351   0.0000      12.746494       346.8497 
 352   0.0000      12.828287       349.0754 
 353   0.0000      12.832425       349.1880 
 354   0.0000      13.043091       354.9205 
 355   0.0000      13.067019       355.5717 
 356   0.0000      13.067565       355.5865 
 357   0.0000      13.650999       371.4626 
 358   0.0000      13.678349       372.2068 
 359   0.0000      13.701056       372.8247 
 360   0.0000      13.750482       374.1696 
 361   0.0000      13.776811       374.8861 
 362   0.0000      14.001718       381.0061 
 363   0.0000      14.279059       388.5530 
 364   0.0000      14.324033       389.7767 
 365   0.0000      14.494788       394.4232 
 366   0.0000      14.600177       397.2910 
 367   0.0000      14.676022       399.3549 
 368   0.0000      14.698850       399.9760 
 369   0.0000      14.734962       400.9587 
 370   0.0000      15.036954       409.1763 
 371   0.0000      15.038239       409.2113 
 372   0.0000      15.062160       409.8622 
 373   0.0000      15.396274       418.9539 
 374   0.0000      15.520978       422.3473 
 375   0.0000      15.522097       422.3777 
 376   0.0000      15.610515       424.7837 
 377   0.0000      15.730582       428.0509 
 378   0.0000      16.251628       442.2293 
 379   0.0000      16.654724       453.1981 
 380   0.0000      16.661559       453.3841 
 381   0.0000      16.778355       456.5622 
 382   0.0000      16.778458       456.5651 
 383   0.0000      16.918890       460.3864 
 384   0.0000      16.961535       461.5468 
 385   0.0000      16.967142       461.6994 
 386   0.0000      17.017066       463.0579 
 387   0.0000      17.043757       463.7842 
 388   0.0000      17.140137       466.4068 
 389   0.0000      17.142668       466.4757 
 390   0.0000      17.369852       472.6577 
 391   0.0000      17.426586       474.2015 
 392   0.0000      17.582155       478.4348 
 393   0.0000      17.586111       478.5424 
 394   0.0000      17.634828       479.8681 
 395   0.0000      17.664569       480.6774 
 396   0.0000      17.838162       485.4011 
 397   0.0000      17.838841       485.4195 
 398   0.0000      17.855660       485.8772 
 399   0.0000      18.248561       496.5686 
 400   0.0000      18.276841       497.3381 
 401   0.0000      18.903889       514.4010 
 402   0.0000      18.915058       514.7049 
 403   0.0000      19.625256       534.0304 
 404   0.0000      19.627227       534.0840 
 405   0.0000      19.654644       534.8301 
 406   0.0000      19.686537       535.6979 
 407   0.0000      20.152266       548.3710 
 408   0.0000      20.152436       548.3757 
 409   0.0000      20.302249       552.4523 
 410   0.0000      20.309321       552.6447 
 411   0.0000      20.336699       553.3897 
 412   0.0000      20.336735       553.3907 
 413   0.0000      20.561437       559.5052 
 414   0.0000      20.827641       566.7489 
 415   0.0000      20.909858       568.9861 
 416   0.0000      20.974530       570.7460 
 417   0.0000      21.012555       571.7807 
 418   0.0000      21.419382       582.8510 
 419   0.0000      22.812141       620.7499 
 420   0.0000      22.858403       622.0088 
 421   0.0000      22.947276       624.4271 
 422   0.0000      23.089198       628.2890 
 423   0.0000      23.214711       631.7044 
 424   0.0000      23.456853       638.2934 
 425   0.0000      23.584932       641.7786 
 426   0.0000      23.655726       643.7050 
 427   0.0000      23.844814       648.8504 
 428   0.0000      24.147990       657.1002 
 429   0.0000      24.196861       658.4301 
 430   0.0000      26.547680       722.3991 
 431   0.0000      27.074523       736.7352 
 432   0.0000      28.716893       781.4264 
 433   0.0000      30.381775       826.7301 
 434   0.0000      30.391044       826.9823 
 435   0.0000      30.495545       829.8260 
 436   0.0000      31.054851       845.0455 
 437   0.0000      31.118711       846.7832 
 438   0.0000      31.888447       867.7288 
 439   0.0000      32.443742       882.8391 
 440   0.0000      33.998673       925.1509 
 441   0.0000      34.436871       937.0749 
 442   0.0000      41.136195      1119.3728 
 443   0.0000      41.202011      1121.1637 
 444   0.0000      41.912860      1140.5069 
 445   0.0000      41.983220      1142.4215 
 446   0.0000      42.541075      1157.6015 
 447   0.0000      45.536146      1239.1015 
 448   0.0000      66.488596      1809.2467 
 449   0.0000      66.622415      1812.8881 
 450   0.0000      66.785938      1817.3378 
 451   0.0000      67.017782      1823.6466 
 452   0.0000      68.581577      1866.1996 
 453   0.0000      90.898001      2473.4604 
 454   0.0000      91.001221      2476.2691 
 455   0.0000      91.123108      2479.5858 
 456   0.0000      91.164537      2480.7132 
 457   0.0000      91.311848      2484.7217 
 458   0.0000      91.321689      2484.9895 
 459   0.0000      91.769098      2497.1641 
 460   0.0000      91.813699      2498.3778 
 461   0.0000      93.031620      2531.5191 
 462   0.0000      93.338128      2539.8596 
 463   0.0000      95.274304      2592.5456 
 464   0.0000     143.303651      3899.4906 
 465   0.0000     203.112877      5526.9824 

                 SPIN DOWN ORBITALS
  NO   OCC          E(Eh)            E(eV) 
   0   1.0000     -24.223623      -659.1583 
   1   1.0000     -18.847523      -512.8672 
   2   1.0000      -1.074751       -29.2455 
   3   1.0000      -0.920236       -25.0409 
   4   1.0000      -0.479252       -13.0411 
   5   1.0000      -0.441327       -12.0091 
   6   1.0000      -0.330945        -9.0055 
   7   1.0000      -0.330502        -8.9934 
   8   1.0000      -0.316282        -8.6065 
   9   0.0000      -0.277403        -7.5485 
  10   0.0000      -0.039976        -1.0878 
  11   0.0000       0.009243         0.2515 
  12   0.0000       0.024118         0.6563 
  13   0.0000       0.028242         0.7685 
  14   0.0000       0.035496         0.9659 
  15   0.0000       0.049839         1.3562 
  16   0.0000       0.056927         1.5491 
  17   0.0000       0.061496         1.6734 
  18   0.0000       0.062853         1.7103 
  19   0.0000       0.081911         2.2289 
  20   0.0000       0.086338         2.3494 
  21   0.0000       0.098045         2.6679 
  22   0.0000       0.109948         2.9918 
  23   0.0000       0.117268         3.1910 
  24   0.0000       0.117580         3.1995 
  25   0.0000       0.132387         3.6024 
  26   0.0000       0.143789         3.9127 
  27   0.0000       0.144370         3.9285 
  28   0.0000       0.152231         4.1424 
  29   0.0000       0.158379         4.3097 
  30   0.0000       0.167494         4.5578 
  31   0.0000       0.167908         4.5690 
  32   0.0000       0.193060         5.2534 
  33   0.0000       0.196054         5.3349 
  34   0.0000       0.208230         5.6662 
  35   0.0000       0.211901         5.7661 
  36   0.0000       0.218416         5.9434 
  37   0.0000       0.224251         6.1022 
  38   0.0000       0.228154         6.2084 
  39   0.0000       0.230551         6.2736 
  40   0.0000       0.232649         6.3307 
  41   0.0000       0.250101         6.8056 
  42   0.0000       0.251061         6.8317 
  43   0.0000       0.259822         7.0701 
  44   0.0000       0.268746         7.3129 
  45   0.0000       0.273135         7.4324 
  46   0.0000       0.288040         7.8380 
  47   0.0000       0.298165         8.1135 
  48   0.0000       0.312624         8.5069 
  49   0.0000       0.317465         8.6387 
  50   0.0000       0.320871         8.7313 
  51   0.0000       0.334306         9.0969 
  52   0.0000       0.345087         9.3903 
  53   0.0000       0.362275         9.8580 
  54   0.0000       0.368352        10.0234 
  55   0.0000       0.371088        10.0978 
  56   0.0000       0.372194        10.1279 
  57   0.0000       0.380710        10.3596 
  58   0.0000       0.386368        10.5136 
  59   0.0000       0.391285        10.6474 
  60   0.0000       0.399095        10.8599 
  61   0.0000       0.418885        11.3984 
  62   0.0000       0.419650        11.4192 
  63   0.0000       0.430058        11.7025 
  64   0.0000       0.430869        11.7246 
  65   0.0000       0.446811        12.1583 
  66   0.0000       0.453010        12.3270 
  67   0.0000       0.460495        12.5307 
  68   0.0000       0.470643        12.8069 
  69   0.0000       0.479195        13.0396 
  70   0.0000       0.488424        13.2907 
  71   0.0000       0.493494        13.4287 
  72   0.0000       0.494239        13.4489 
  73   0.0000       0.502127        13.6636 
  74   0.0000       0.503215        13.6932 
  75   0.0000       0.508866        13.8469 
  76   0.0000       0.518581        14.1113 
  77   0.0000       0.522472        14.2172 
  78   0.0000       0.533701        14.5227 
  79   0.0000       0.538992        14.6667 
  80   0.0000       0.542107        14.7515 
  81   0.0000       0.559621        15.2281 
  82   0.0000       0.567671        15.4471 
  83   0.0000       0.575479        15.6596 
  84   0.0000       0.582736        15.8571 
  85   0.0000       0.587832        15.9957 
  86   0.0000       0.595769        16.2117 
  87   0.0000       0.611542        16.6409 
  88   0.0000       0.615762        16.7557 
  89   0.0000       0.625282        17.0148 
  90   0.0000       0.636894        17.3308 
  91   0.0000       0.641338        17.4517 
  92   0.0000       0.654539        17.8109 
  93   0.0000       0.662812        18.0360 
  94   0.0000       0.684811        18.6346 
  95   0.0000       0.687211        18.7000 
  96   0.0000       0.719785        19.5863 
  97   0.0000       0.721536        19.6340 
  98   0.0000       0.728779        19.8311 
  99   0.0000       0.735644        20.0179 
 100   0.0000       0.742141        20.1947 
 101   0.0000       0.744796        20.2669 
 102   0.0000       0.755892        20.5689 
 103   0.0000       0.764005        20.7896 
 104   0.0000       0.766552        20.8589 
 105   0.0000       0.769193        20.9308 
 106   0.0000       0.783525        21.3208 
 107   0.0000       0.793503        21.5923 
 108   0.0000       0.797223        21.6935 
 109   0.0000       0.811771        22.0894 
 110   0.0000       0.818548        22.2738 
 111   0.0000       0.842978        22.9386 
 112   0.0000       0.855998        23.2929 
 113   0.0000       0.861657        23.4469 
 114   0.0000       0.864593        23.5268 
 115   0.0000       0.878514        23.9056 
 116   0.0000       0.888113        24.1668 
 117   0.0000       0.911936        24.8150 
 118   0.0000       0.919791        25.0288 
 119   0.0000       0.923434        25.1279 
 120   0.0000       0.946161        25.7464 
 121   0.0000       0.949172        25.8283 
 122   0.0000       0.954998        25.9868 
 123   0.0000       0.969756        26.3884 
 124   0.0000       0.978796        26.6344 
 125   0.0000       0.983120        26.7520 
 126   0.0000       0.988088        26.8873 
 127   0.0000       1.004959        27.3463 
 128   0.0000       1.005167        27.3520 
 129   0.0000       1.021490        27.7962 
 130   0.0000       1.031357        28.0647 
 131   0.0000       1.041208        28.3327 
 132   0.0000       1.044921        28.4337 
 133   0.0000       1.048309        28.5259 
 134   0.0000       1.056401        28.7461 
 135   0.0000       1.064971        28.9793 
 136   0.0000       1.076258        29.2865 
 137   0.0000       1.081145        29.4194 
 138   0.0000       1.086089        29.5540 
 139   0.0000       1.105695        30.0875 
 140   0.0000       1.106722        30.1154 
 141   0.0000       1.127978        30.6939 
 142   0.0000       1.142690        31.0942 
 143   0.0000       1.169657        31.8280 
 144   0.0000       1.183166        32.1956 
 145   0.0000       1.187147        32.3039 
 146   0.0000       1.194456        32.5028 
 147   0.0000       1.204900        32.7870 
 148   0.0000       1.205134        32.7934 
 149   0.0000       1.217627        33.1333 
 150   0.0000       1.220045        33.1991 
 151   0.0000       1.238251        33.6945 
 152   0.0000       1.265092        34.4249 
 153   0.0000       1.292982        35.1838 
 154   0.0000       1.329081        36.1661 
 155   0.0000       1.329153        36.1681 
 156   0.0000       1.347639        36.6711 
 157   0.0000       1.354607        36.8607 
 158   0.0000       1.355787        36.8928 
 159   0.0000       1.371684        37.3254 
 160   0.0000       1.391140        37.8549 
 161   0.0000       1.392015        37.8787 
 162   0.0000       1.417957        38.5846 
 163   0.0000       1.438276        39.1375 
 164   0.0000       1.463086        39.8126 
 165   0.0000       1.465083        39.8669 
 166   0.0000       1.486407        40.4472 
 167   0.0000       1.495315        40.6896 
 168   0.0000       1.512696        41.1626 
 169   0.0000       1.550923        42.2028 
 170   0.0000       1.579489        42.9801 
 171   0.0000       1.587083        43.1867 
 172   0.0000       1.588563        43.2270 
 173   0.0000       1.637225        44.5512 
 174   0.0000       1.637825        44.5675 
 175   0.0000       1.654560        45.0229 
 176   0.0000       1.695606        46.1398 
 177   0.0000       1.741222        47.3811 
 178   0.0000       1.752722        47.6940 
 179   0.0000       1.765305        48.0364 
 180   0.0000       1.798352        48.9357 
 181   0.0000       1.816725        49.4356 
 182   0.0000       1.858011        50.5591 
 183   0.0000       1.923161        52.3319 
 184   0.0000       1.924390        52.3653 
 185   0.0000       1.931566        52.5606 
 186   0.0000       1.995748        54.3071 
 187   0.0000       2.031078        55.2685 
 188   0.0000       2.109375        57.3990 
 189   0.0000       2.147440        58.4348 
 190   0.0000       2.178021        59.2670 
 191   0.0000       2.226992        60.5995 
 192   0.0000       2.259387        61.4810 
 193   0.0000       2.287309        62.2408 
 194   0.0000       2.307995        62.8037 
 195   0.0000       2.316094        63.0241 
 196   0.0000       2.390141        65.0390 
 197   0.0000       2.390897        65.0596 
 198   0.0000       2.399978        65.3067 
 199   0.0000       2.403064        65.3907 
 200   0.0000       2.421221        65.8848 
 201   0.0000       2.429300        66.1046 
 202   0.0000       2.486137        67.6512 
 203   0.0000       2.524944        68.7072 
 204   0.0000       2.586387        70.3792 
 205   0.0000       2.666868        72.5692 
 206   0.0000       2.670730        72.6743 
 207   0.0000       2.789033        75.8935 
 208   0.0000       2.831807        77.0574 
 209   0.0000       2.850017        77.5529 
 210   0.0000       2.884025        78.4783 
 211   0.0000       2.916554        79.3635 
 212   0.0000       2.937258        79.9269 
 213   0.0000       3.006924        81.8226 
 214   0.0000       3.170535        86.2746 
 215   0.0000       3.256814        88.6224 
 216   0.0000       3.329306        90.5950 
 217   0.0000       3.359291        91.4110 
 218   0.0000       3.393989        92.3551 
 219   0.0000       3.408756        92.7570 
 220   0.0000       3.434700        93.4629 
 221   0.0000       3.445157        93.7475 
 222   0.0000       3.511456        95.5516 
 223   0.0000       3.528942        96.0274 
 224   0.0000       3.566167        97.0403 
 225   0.0000       3.593241        97.7771 
 226   0.0000       3.597758        97.9000 
 227   0.0000       3.662645        99.6656 
 228   0.0000       3.720457       101.2388 
 229   0.0000       3.730232       101.5048 
 230   0.0000       3.752952       102.1230 
 231   0.0000       3.887728       105.7905 
 232   0.0000       3.929423       106.9250 
 233   0.0000       3.940235       107.2192 
 234   0.0000       3.945951       107.3748 
 235   0.0000       3.972016       108.0840 
 236   0.0000       4.075138       110.8901 
 237   0.0000       4.131252       112.4171 
 238   0.0000       4.163717       113.3005 
 239   0.0000       4.250746       115.6687 
 240   0.0000       4.260415       115.9318 
 241   0.0000       4.277521       116.3973 
 242   0.0000       4.346864       118.2842 
 243   0.0000       4.478942       121.8782 
 244   0.0000       4.527958       123.2120 
 245   0.0000       4.577721       124.5661 
 246   0.0000       4.591397       124.9383 
 247   0.0000       4.657680       126.7419 
 248   0.0000       4.744641       129.1083 
 249   0.0000       4.908172       133.5582 
 250   0.0000       4.949746       134.6894 
 251   0.0000       5.053222       137.5052 
 252   0.0000       5.218301       141.9972 
 253   0.0000       5.246410       142.7621 
 254   0.0000       5.273547       143.5005 
 255   0.0000       5.320817       144.7868 
 256   0.0000       5.419409       147.4696 
 257   0.0000       5.448640       148.2650 
 258   0.0000       5.456554       148.4804 
 259   0.0000       5.520300       150.2150 
 260   0.0000       5.555110       151.1622 
 261   0.0000       5.603942       152.4910 
 262   0.0000       5.630735       153.2201 
 263   0.0000       5.634526       153.3232 
 264   0.0000       5.744441       156.3142 
 265   0.0000       5.802958       157.9065 
 266   0.0000       6.022353       163.8766 
 267   0.0000       6.044194       164.4709 
 268   0.0000       6.105992       166.1525 
 269   0.0000       6.161350       167.6588 
 270   0.0000       6.200856       168.7339 
 271   0.0000       6.201179       168.7427 
 272   0.0000       6.212071       169.0390 
 273   0.0000       6.226122       169.4214 
 274   0.0000       6.314809       171.8347 
 275   0.0000       6.352068       172.8486 
 276   0.0000       6.521184       177.4504 
 277   0.0000       6.550435       178.2464 
 278   0.0000       6.664941       181.3623 
 279   0.0000       6.666462       181.4037 
 280   0.0000       6.874224       187.0571 
 281   0.0000       7.044423       191.6885 
 282   0.0000       7.155205       194.7030 
 283   0.0000       7.156158       194.7290 
 284   0.0000       7.158280       194.7867 
 285   0.0000       7.160816       194.8557 
 286   0.0000       7.316015       199.0789 
 287   0.0000       7.321916       199.2395 
 288   0.0000       7.391934       201.1447 
 289   0.0000       7.392826       201.1690 
 290   0.0000       7.411048       201.6649 
 291   0.0000       7.436502       202.3575 
 292   0.0000       7.444065       202.5633 
 293   0.0000       7.610228       207.0848 
 294   0.0000       8.238221       224.1734 
 295   0.0000       8.300121       225.8578 
 296   0.0000       8.336547       226.8490 
 297   0.0000       8.343843       227.0475 
 298   0.0000       8.347417       227.1448 
 299   0.0000       8.399647       228.5660 
 300   0.0000       8.531505       232.1541 
 301   0.0000       8.767492       238.5756 
 302   0.0000       8.772283       238.7060 
 303   0.0000       8.814058       239.8427 
 304   0.0000       8.865770       241.2499 
 305   0.0000       9.003192       244.9893 
 306   0.0000       9.095356       247.4972 
 307   0.0000       9.122254       248.2292 
 308   0.0000       9.269382       252.2327 
 309   0.0000       9.355487       254.5757 
 310   0.0000       9.484922       258.0979 
 311   0.0000       9.673400       263.2266 
 312   0.0000       9.781440       266.1665 
 313   0.0000      10.008157       272.3358 
 314   0.0000      10.408022       283.2167 
 315   0.0000      10.499063       285.6940 
 316   0.0000      10.653150       289.8870 
 317   0.0000      10.670778       290.3666 
 318   0.0000      10.778650       293.3020 
 319   0.0000      10.940072       297.6945 
 320   0.0000      11.209127       305.0158 
 321   0.0000      11.294573       307.3410 
 322   0.0000      11.491404       312.6970 
 323   0.0000      11.652217       317.0729 
 324   0.0000      11.689710       318.0932 
 325   0.0000      11.742616       319.5328 
 326   0.0000      11.775659       320.4320 
 327   0.0000      11.826261       321.8089 
 328   0.0000      11.927722       324.5698 
 329   0.0000      11.977730       325.9306 
 330   0.0000      11.979334       325.9743 
 331   0.0000      12.030953       327.3789 
 332   0.0000      12.041574       327.6679 
 333   0.0000      12.054278       328.0136 
 334   0.0000      12.056755       328.0810 
 335   0.0000      12.087157       328.9083 
 336   0.0000      12.103087       329.3417 
 337   0.0000      12.305536       334.8507 
 338   0.0000      12.327808       335.4567 
 339   0.0000      12.330690       335.5351 
 340   0.0000      12.471132       339.3568 
 341   0.0000      12.538039       341.1774 
 342   0.0000      12.565435       341.9229 
 343   0.0000      12.572636       342.1188 
 344   0.0000      12.632169       343.7388 
 345   0.0000      12.640970       343.9783 
 346   0.0000      12.665841       344.6551 
 347   0.0000      12.665916       344.6571 
 348   0.0000      12.720115       346.1319 
 349   0.0000      12.720124       346.1322 
 350   0.0000      12.774929       347.6235 
 351   0.0000      12.790246       348.0403 
 352   0.0000      12.891140       350.7857 
 353   0.0000      12.912029       351.3542 
 354   0.0000      13.067060       355.5728 
 355   0.0000      13.067504       355.5849 
 356   0.0000      13.106661       356.6504 
 357   0.0000      13.680048       372.2530 
 358   0.0000      13.703267       372.8849 
 359   0.0000      13.718158       373.2901 
 360   0.0000      13.772099       374.7579 
 361   0.0000      13.783158       375.0588 
 362   0.0000      14.012921       381.3110 
 363   0.0000      14.300297       389.1309 
 364   0.0000      14.347007       390.4019 
 365   0.0000      14.497333       394.4925 
 366   0.0000      14.602100       397.3433 
 367   0.0000      14.676237       399.3607 
 368   0.0000      14.699223       399.9862 
 369   0.0000      14.735442       400.9718 
 370   0.0000      15.038117       409.2080 
 371   0.0000      15.039398       409.2428 
 372   0.0000      15.064446       409.9244 
 373   0.0000      15.413819       419.4313 
 374   0.0000      15.521486       422.3611 
 375   0.0000      15.522641       422.3925 
 376   0.0000      15.614250       424.8853 
 377   0.0000      15.731857       428.0856 
 378   0.0000      16.253052       442.2680 
 379   0.0000      16.659248       453.3212 
 380   0.0000      16.664091       453.4530 
 381   0.0000      16.778070       456.5545 
 382   0.0000      16.778169       456.5572 
 383   0.0000      16.999828       462.5888 
 384   0.0000      17.013628       462.9644 
 385   0.0000      17.026840       463.3239 
 386   0.0000      17.045573       463.8336 
 387   0.0000      17.073722       464.5996 
 388   0.0000      17.156004       466.8386 
 389   0.0000      17.231534       468.8939 
 390   0.0000      17.434481       474.4163 
 391   0.0000      17.467043       475.3024 
 392   0.0000      17.604915       479.0541 
 393   0.0000      17.634522       479.8597 
 394   0.0000      17.659043       480.5270 
 395   0.0000      17.725874       482.3456 
 396   0.0000      17.837949       485.3953 
 397   0.0000      17.838723       485.4163 
 398   0.0000      17.905146       487.2238 
 399   0.0000      18.249784       496.6019 
 400   0.0000      18.277544       497.3573 
 401   0.0000      18.905178       514.4361 
 402   0.0000      18.942748       515.4584 
 403   0.0000      19.631647       534.2043 
 404   0.0000      19.632902       534.2384 
 405   0.0000      19.654902       534.8371 
 406   0.0000      19.688366       535.7477 
 407   0.0000      20.153454       548.4034 
 408   0.0000      20.153624       548.4080 
 409   0.0000      20.302048       552.4468 
 410   0.0000      20.309149       552.6401 
 411   0.0000      20.337481       553.4110 
 412   0.0000      20.337549       553.4129 
 413   0.0000      20.581452       560.0498 
 414   0.0000      20.866423       567.8042 
 415   0.0000      20.908930       568.9609 
 416   0.0000      20.975214       570.7646 
 417   0.0000      21.012428       571.7772 
 418   0.0000      21.419376       582.8509 
 419   0.0000      22.825943       621.1255 
 420   0.0000      22.862045       622.1079 
 421   0.0000      23.035823       626.8366 
 422   0.0000      23.132103       629.4565 
 423   0.0000      23.267284       633.1350 
 424   0.0000      23.485929       639.0846 
 425   0.0000      23.646741       643.4605 
 426   0.0000      23.654621       643.6750 
 427   0.0000      23.864446       649.3846 
 428   0.0000      24.147821       657.0956 
 429   0.0000      24.196537       658.4213 
 430   0.0000      26.559451       722.7194 
 431   0.0000      27.104069       737.5392 
 432   0.0000      28.716649       781.4197 
 433   0.0000      30.383079       826.7656 
 434   0.0000      30.393758       827.0562 
 435   0.0000      30.534800       830.8942 
 436   0.0000      31.056718       845.0963 
 437   0.0000      31.118719       846.7834 
 438   0.0000      32.008950       871.0078 
 439   0.0000      32.467871       883.4957 
 440   0.0000      34.030236       926.0098 
 441   0.0000      34.436930       937.0765 
 442   0.0000      41.132435      1119.2705 
 443   0.0000      41.198274      1121.0620 
 444   0.0000      41.914156      1140.5422 
 445   0.0000      41.983444      1142.4276 
 446   0.0000      42.541283      1157.6072 
 447   0.0000      45.536449      1239.1098 
 448   0.0000      66.558701      1811.1543 
 449   0.0000      66.692006      1814.7817 
 450   0.0000      66.860229      1819.3593 
 451   0.0000      67.039393      1824.2346 
 452   0.0000      68.614888      1867.1060 
 453   0.0000      90.887462      2473.1736 
 454   0.0000      90.989440      2475.9485 
 455   0.0000      91.122870      2479.5793 
 456   0.0000      91.164119      2480.7018 
 457   0.0000      91.312643      2484.7433 
 458   0.0000      91.322492      2485.0114 
 459   0.0000      91.769748      2497.1818 
 460   0.0000      91.813628      2498.3758 
 461   0.0000      93.031535      2531.5168 
 462   0.0000      93.327396      2539.5676 
 463   0.0000      95.274116      2592.5405 
 464   0.0000     143.329554      3900.1954 
 465   0.0000     203.113144      5526.9896 

                    ********************************
                    * MULLIKEN POPULATION ANALYSIS *
                    ********************************

--------------------------------------------
MULLIKEN ATOMIC CHARGES AND SPIN POPULATIONS
--------------------------------------------
   0 H :    0.279611   -0.016363
   1 F :   -0.306089    0.014483
   2 O :   -0.192964    0.995132
   3 H :    0.219442    0.006748
Sum of atomic charges         :   -0.0000000
Sum of atomic spin populations:    1.0000000

-----------------------------------------------------
MULLIKEN REDUCED ORBITAL CHARGES AND SPIN POPULATIONS
-----------------------------------------------------
CHARGE
  0 H s       :     0.621234  s :     0.621234
      pz      :     0.027098  p :     0.096703
      px      :     0.032892
      py      :     0.036713
      dz2     :    -0.000832  d :    -0.002169
      dxz     :    -0.001783
      dyz     :     0.000505
      dx2y2   :    -0.000018
      dxy     :    -0.000042
      f0      :     0.001854  f :     0.006255
      f+1     :     0.002256
      f-1     :     0.002298
      f+2     :    -0.000051
      f-2     :    -0.000092
      f+3     :    -0.000012
      f-3     :     0.000001
      g0      :    -0.000436  g :    -0.001633
      g+1     :    -0.000704
      g-1     :    -0.000352
      g+2     :    -0.000032
      g-2     :    -0.000093
      g+3     :    -0.000016
      g-3     :    -0.000000
      g+4     :    -0.000001
      g-4     :     0.000000
  1 F s       :     3.888243  s :     3.888243
      pz      :     1.478611  p :     5.412858
      px      :     1.977528
      py      :     1.956719
      dz2     :     0.001125  d :     0.006877
      dxz     :     0.002640
      dyz     :     0.003147
      dx2y2   :    -0.000025
      dxy     :    -0.000009
      f0      :    -0.000397  f :    -0.000789
      f+1     :    -0.000487
      f-1     :     0.000167
      f+2     :    -0.000030
      f-2     :    -0.000041
      f+3     :    -0.000001
      f-3     :    -0.000000
      g0      :    -0.000211  g :    -0.000848
      g+1     :    -0.000401
      g-1     :    -0.000197
      g+2     :    -0.000018
      g-2     :    -0.000021
      g+3     :     0.000001
      g-3     :    -0.000000
      g+4     :     0.000000
      g-4     :    -0.000000
      h0      :    -0.000052  h :    -0.000252
      h+1     :    -0.000111
      h-1     :    -0.000074
      h+2     :    -0.000006
      h-2     :    -0.000009
      h+3     :     0.000000
      h-3     :    -0.000000
      h+4     :    -0.000000
      h-4     :    -0.000000
      h+5     :    -0.000000
      h-5     :     0.000000
  2 O s       :     3.896649  s :     3.896649
      pz      :     1.903269  p :     4.294359
      px      :     1.406986
      py      :     0.984104
      dz2     :     0.002826  d :     0.004999
      dxz     :    -0.002297
      dyz     :    -0.001219
      dx2y2   :     0.004542
      dxy     :     0.001147
      f0      :    -0.000726  f :    -0.002166
      f+1     :    -0.001712
      f-1     :     0.000207
      f+2     :     0.000005
      f-2     :     0.000029
      f+3     :     0.000061
      f-3     :    -0.000031
      g0      :    -0.000238  g :    -0.000700
      g+1     :    -0.000356
      g-1     :    -0.000147
      g+2     :     0.000027
      g-2     :    -0.000019
      g+3     :     0.000012
      g-3     :    -0.000000
      g+4     :     0.000021
      g-4     :    -0.000000
      h0      :    -0.000027  h :    -0.000177
      h+1     :    -0.000088
      h-1     :    -0.000063
      h+2     :     0.000003
      h-2     :    -0.000002
      h+3     :     0.000001
      h-3     :     0.000000
      h+4     :     0.000001
      h-4     :    -0.000000
      h+5     :    -0.000001
      h-5     :    -0.000000
  3 H s       :     0.693013  s :     0.693013
      pz      :     0.040186  p :     0.082516
      px      :     0.025365
      py      :     0.016965
      dz2     :    -0.001968  d :     0.005613
      dxz     :     0.004057
      dyz     :    -0.000661
      dx2y2   :     0.002181
      dxy     :     0.002004
      f0      :    -0.000505  f :    -0.000576
      f+1     :     0.000494
      f-1     :    -0.000711
      f+2     :     0.000196
      f-2     :    -0.000161
      f+3     :    -0.000058
      f-3     :     0.000167
      g0      :     0.000124  g :    -0.000007
      g+1     :     0.000032
      g-1     :    -0.000083
      g+2     :     0.000103
      g-2     :    -0.000142
      g+3     :    -0.000006
      g-3     :    -0.000019
      g+4     :    -0.000029
      g-4     :     0.000014

SPIN
  0 H s       :    -0.012398  s :    -0.012398
      pz      :    -0.003474  p :    -0.006017
      px      :     0.000425
      py      :    -0.002967
      dz2     :    -0.000119  d :     0.001295
      dxz     :     0.001498
      dyz     :    -0.000139
      dx2y2   :     0.000117
      dxy     :    -0.000062
      f0      :     0.000105  f :     0.001064
      f+1     :    -0.000047
      f-1     :     0.000769
      f+2     :     0.000333
      f-2     :    -0.000112
      f+3     :     0.000015
      f-3     :     0.000001
      g0      :     0.000022  g :    -0.000307
      g+1     :     0.000083
      g-1     :    -0.000317
      g+2     :    -0.000023
      g-2     :    -0.000091
      g+3     :     0.000019
      g-3     :     0.000000
      g+4     :     0.000001
      g-4     :     0.000000
  1 F s       :     0.003410  s :     0.003410
      pz      :    -0.000091  p :     0.010991
      px      :    -0.000299
      py      :     0.011381
      dz2     :     0.000522  d :     0.001139
      dxz     :    -0.000311
      dyz     :     0.000875
      dx2y2   :     0.000072
      dxy     :    -0.000018
      f0      :    -0.000214  f :    -0.000462
      f+1     :    -0.000146
      f-1     :    -0.000071
      f+2     :     0.000010
      f-2     :    -0.000042
      f+3     :     0.000001
      f-3     :    -0.000000
      g0      :    -0.000150  g :    -0.000451
      g+1     :    -0.000071
      g-1     :    -0.000210
      g+2     :     0.000001
      g-2     :    -0.000021
      g+3     :    -0.000000
      g-3     :    -0.000000
      g+4     :    -0.000000
      g-4     :    -0.000000
      h0      :    -0.000036  h :    -0.000143
      h+1     :    -0.000023
      h-1     :    -0.000074
      h+2     :    -0.000000
      h-2     :    -0.000010
      h+3     :    -0.000000
      h-3     :    -0.000000
      h+4     :    -0.000000
      h-4     :    -0.000000
      h+5     :    -0.000000
      h-5     :     0.000000
  2 O s       :     0.010161  s :     0.010161
      pz      :     0.006209  p :     0.982977
      px      :     0.005995
      py      :     0.970773
      dz2     :     0.000525  d :     0.002210
      dxz     :     0.000437
      dyz     :     0.000050
      dx2y2   :     0.000085
      dxy     :     0.001113
      f0      :     0.000265  f :    -0.000221
      f+1     :     0.000051
      f-1     :     0.000018
      f+2     :    -0.000084
      f-2     :     0.000039
      f+3     :    -0.000476
      f-3     :    -0.000035
      g0      :     0.000016  g :    -0.000003
      g+1     :    -0.000006
      g-1     :    -0.000024
      g+2     :     0.000004
      g-2     :     0.000016
      g+3     :    -0.000001
      g-3     :     0.000000
      g+4     :    -0.000007
      g-4     :    -0.000000
      h0      :     0.000005  h :     0.000008
      h+1     :    -0.000003
      h-1     :    -0.000001
      h+2     :    -0.000001
      h-2     :     0.000005
      h+3     :    -0.000001
      h-3     :    -0.000000
      h+4     :     0.000000
      h-4     :    -0.000000
      h+5     :     0.000004
      h-5     :     0.000000
  3 H s       :    -0.005770  s :    -0.005770
      pz      :    -0.003769  p :     0.008916
      px      :    -0.003659
      py      :     0.016344
      dz2     :     0.000389  d :     0.002940
      dxz     :     0.000468
      dyz     :     0.000273
      dx2y2   :    -0.000297
      dxy     :     0.002108
      f0      :    -0.000196  f :     0.000620
      f+1     :     0.000319
      f-1     :     0.000011
      f+2     :     0.000125
      f-2     :     0.000123
      f+3     :    -0.000000
      f-3     :     0.000238
      g0      :     0.000001  g :     0.000042
      g+1     :    -0.000051
      g-1     :     0.000028
      g+2     :     0.000018
      g-2     :    -0.000005
      g+3     :     0.000011
      g-3     :     0.000015
      g+4     :     0.000003
      g-4     :     0.000023


                     *******************************
                     * LOEWDIN POPULATION ANALYSIS *
                     *******************************

-------------------------------------------
LOEWDIN ATOMIC CHARGES AND SPIN POPULATIONS
-------------------------------------------
   0 H :   -1.213414    0.033586
   1 F :    0.975819    0.019902
   2 O :    0.996992    0.784427
   3 H :   -0.759398    0.162085

----------------------------------------------------
LOEWDIN REDUCED ORBITAL CHARGES AND SPIN POPULATIONS
----------------------------------------------------
CHARGE
  0 H s       :     0.569629  s :     0.569629
      pz      :     0.414736  p :     0.718176
      px      :     0.154043
      py      :     0.149397
      dz2     :     0.266233  d :     0.617010
      dxz     :     0.185196
      dyz     :     0.164493
      dx2y2   :     0.000862
      dxy     :     0.000225
      f0      :     0.075114  f :     0.223847
      f+1     :     0.080388
      f-1     :     0.065333
      f+2     :     0.002449
      f-2     :     0.000512
      f+3     :     0.000049
      f-3     :     0.000003
      g0      :     0.034045  g :     0.084751
      g+1     :     0.030812
      g-1     :     0.014711
      g+2     :     0.004175
      g-2     :     0.000739
      g+3     :     0.000251
      g-3     :     0.000015
      g+4     :     0.000003
      g-4     :     0.000000
  1 F s       :     3.227205  s :     3.227205
      pz      :     1.504117  p :     4.619627
      px      :     1.562437
      py      :     1.553073
      dz2     :     0.047108  d :     0.060995
      dxz     :     0.008197
      dyz     :     0.005581
      dx2y2   :     0.000084
      dxy     :     0.000025
      f0      :     0.033173  f :     0.049573
      f+1     :     0.010367
      f-1     :     0.005517
      f+2     :     0.000395
      f-2     :     0.000105
      f+3     :     0.000014
      f-3     :     0.000002
      g0      :     0.023359  g :     0.036642
      g+1     :     0.008187
      g-1     :     0.004766
      g+2     :     0.000247
      g-2     :     0.000078
      g+3     :     0.000005
      g-3     :     0.000000
      g+4     :     0.000000
      g-4     :     0.000000
      h0      :     0.017129  h :     0.030139
      h+1     :     0.007828
      h-1     :     0.004628
      h+2     :     0.000418
      h-2     :     0.000120
      h+3     :     0.000016
      h-3     :     0.000000
      h+4     :     0.000001
      h-4     :     0.000000
      h+5     :     0.000000
      h-5     :     0.000000
  2 O s       :     3.129237  s :     3.129237
      pz      :     1.462465  p :     3.588770
      px      :     1.351491
      py      :     0.774815
      dz2     :     0.042824  d :     0.086507
      dxz     :     0.016968
      dyz     :     0.008156
      dx2y2   :     0.017430
      dxy     :     0.001129
      f0      :     0.033759  f :     0.067572
      f+1     :     0.015719
      f-1     :     0.013389
      f+2     :     0.001641
      f-2     :     0.000205
      f+3     :     0.002335
      f-3     :     0.000525
      g0      :     0.032579  g :     0.070127
      g+1     :     0.018819
      g-1     :     0.017010
      g+2     :     0.000607
      g-2     :     0.000436
      g+3     :     0.000224
      g-3     :     0.000038
      g+4     :     0.000302
      g-4     :     0.000110
      h0      :     0.025750  h :     0.060794
      h+1     :     0.016898
      h-1     :     0.016382
      h+2     :     0.000674
      h-2     :     0.000698
      h+3     :     0.000090
      h-3     :     0.000019
      h+4     :     0.000088
      h-4     :     0.000024
      h+5     :     0.000118
      h-5     :     0.000053
  3 H s       :     0.641970  s :     0.641970
      pz      :     0.185038  p :     0.551859
      px      :     0.289998
      py      :     0.076823
      dz2     :     0.067311  d :     0.391771
      dxz     :     0.138380
      dyz     :     0.008719
      dx2y2   :     0.106925
      dxy     :     0.070435
      f0      :     0.021829  f :     0.129840
      f+1     :     0.037150
      f-1     :     0.005599
      f+2     :     0.024037
      f-2     :     0.006189
      f+3     :     0.015072
      f-3     :     0.019964
      g0      :     0.009883  g :     0.043958
      g+1     :     0.014238
      g-1     :     0.004554
      g+2     :     0.006727
      g-2     :     0.003439
      g+3     :     0.001783
      g-3     :     0.000896
      g+4     :     0.001370
      g-4     :     0.001068

SPIN
  0 H s       :    -0.001952  s :    -0.001952
      pz      :    -0.003395  p :    -0.001884
      px      :    -0.000426
      py      :     0.001936
      dz2     :    -0.000881  d :     0.016440
      dxz     :    -0.000675
      dyz     :     0.017801
      dx2y2   :    -0.000026
      dxy     :     0.000220
      f0      :    -0.000619  f :     0.008941
      f+1     :    -0.000441
      f-1     :     0.009575
      f+2     :    -0.000061
      f-2     :     0.000489
      f+3     :    -0.000005
      f-3     :     0.000003
      g0      :    -0.000187  g :     0.012041
      g+1     :    -0.000199
      g-1     :     0.011783
      g+2     :    -0.000078
      g-2     :     0.000734
      g+3     :    -0.000026
      g-3     :     0.000015
      g+4     :    -0.000000
      g-4     :     0.000000
  1 F s       :    -0.000429  s :    -0.000429
      pz      :    -0.001848  p :     0.006924
      px      :    -0.000027
      py      :     0.008800
      dz2     :    -0.001006  d :     0.000914
      dxz     :    -0.000175
      dyz     :     0.002075
      dx2y2   :    -0.000003
      dxy     :     0.000023
      f0      :    -0.000454  f :     0.004165
      f+1     :    -0.000176
      f-1     :     0.004700
      f+2     :    -0.000010
      f-2     :     0.000104
      f+3     :    -0.000001
      f-3     :     0.000002
      g0      :    -0.000091  g :     0.003845
      g+1     :    -0.000057
      g-1     :     0.003923
      g+2     :    -0.000005
      g-2     :     0.000076
      g+3     :    -0.000001
      g-3     :     0.000000
      g+4     :     0.000000
      g-4     :     0.000000
      h0      :     0.000060  h :     0.004483
      h+1     :     0.000019
      h-1     :     0.004292
      h+2     :    -0.000005
      h-2     :     0.000119
      h+3     :    -0.000002
      h-3     :     0.000000
      h+4     :    -0.000000
      h-4     :     0.000000
      h+5     :     0.000000
      h-5     :     0.000000
  2 O s       :     0.007310  s :     0.007310
      pz      :     0.008340  p :     0.775647
      px      :     0.009902
      py      :     0.757405
      dz2     :     0.000054  d :     0.000690
      dxz     :    -0.000288
      dyz     :     0.000229
      dx2y2   :    -0.000385
      dxy     :     0.001080
      f0      :     0.000022  f :     0.000277
      f+1     :     0.000018
      f-1     :     0.000140
      f+2     :     0.000027
      f-2     :     0.000065
      f+3     :    -0.000517
      f-3     :     0.000522
      g0      :    -0.000038  g :     0.000249
      g+1     :    -0.000007
      g-1     :     0.000175
      g+2     :     0.000000
      g-2     :     0.000001
      g+3     :    -0.000007
      g-3     :     0.000038
      g+4     :    -0.000022
      g-4     :     0.000108
      h0      :    -0.000024  h :     0.000255
      h+1     :    -0.000002
      h-1     :     0.000171
      h+2     :    -0.000001
      h-2     :     0.000033
      h+3     :    -0.000001
      h-3     :     0.000005
      h+4     :     0.000000
      h-4     :     0.000021
      h+5     :    -0.000000
      h-5     :     0.000051
  3 H s       :    -0.013396  s :    -0.013396
      pz      :    -0.003218  p :     0.071972
      px      :     0.001504
      py      :     0.073685
      dz2     :     0.001149  d :     0.076773
      dxz     :     0.001186
      dyz     :     0.005283
      dx2y2   :     0.000727
      dxy     :     0.068427
      f0      :     0.000384  f :     0.025206
      f+1     :     0.000563
      f-1     :     0.000703
      f+2     :     0.000160
      f-2     :     0.004133
      f+3     :    -0.000181
      f-3     :     0.019444
      g0      :     0.000013  g :     0.001531
      g+1     :     0.000023
      g-1     :     0.000178
      g+2     :    -0.000002
      g-2     :     0.000143
      g+3     :    -0.000033
      g-3     :     0.000294
      g+4     :    -0.000076
      g-4     :     0.000991


                      *****************************
                      * MAYER POPULATION ANALYSIS *
                      *****************************

  NA   - Mulliken gross atomic population
  ZA   - Total nuclear charge
  QA   - Mulliken gross atomic charge
  VA   - Mayer's total valence
  BVA  - Mayer's bonded valence
  FA   - Mayer's free valence

  ATOM       NA         ZA         QA         VA         BVA        FA
  0 H      0.7204     1.0000     0.2796     1.0378     1.0375     0.0002
  1 F      9.3061     9.0000    -0.3061     0.7868     0.7866     0.0002
  2 O      8.1930     8.0000    -0.1930     1.9939     1.0451     0.9488
  3 H      0.7806     1.0000     0.2194     1.0030     1.0031    -0.0001

  Mayer bond orders larger than 0.1
B(  0-H ,  1-F ) :   0.9111 B(  0-H ,  2-O ) :   0.1278 B(  1-F ,  2-O ) :  -0.1058 
B(  2-O ,  3-H ) :   1.0230 

-------
TIMINGS
-------

Total SCF time: 0 days 0 hours 17 min 42 sec 

Total time                  ....    1062.393 sec
Sum of individual times     ....    1061.350 sec  ( 99.9%)

Fock matrix formation       ....    1056.522 sec  ( 99.4%)
  XC integration            ....      18.110 sec  (  1.7% of F)
    Basis function eval.    ....       1.129 sec  (  6.2% of XC)
    Density eval.           ....       3.829 sec  ( 21.1% of XC)
    XC-Functional eval.     ....       0.151 sec  (  0.8% of XC)
    XC-Potential eval.      ....      12.375 sec  ( 68.3% of XC)
Diagonalization             ....       2.167 sec  (  0.2%)
Density matrix formation    ....       0.046 sec  (  0.0%)
Population analysis         ....       0.182 sec  (  0.0%)
Initial guess               ....       0.866 sec  (  0.1%)
Orbital Transformation      ....       0.000 sec  (  0.0%)
Orbital Orthonormalization  ....       0.000 sec  (  0.0%)
DIIS solution               ....       1.203 sec  (  0.1%)
Grid generation             ....       0.363 sec  (  0.0%)

-------------------------   --------------------
FINAL SINGLE POINT ENERGY      -176.104729402290
-------------------------   --------------------


                            ***************************************
                            *     ORCA property calculations      *
                            ***************************************

                                    ---------------------
                                    Active property flags
                                    ---------------------
   (+) Dipole Moment


------------------------------------------------------------------------------
                       ORCA ELECTRIC PROPERTIES CALCULATION
------------------------------------------------------------------------------

Dipole Moment Calculation                       ... on
Quadrupole Moment Calculation                   ... off
Polarizability Calculation                      ... off
GBWName                                         ... fh-oh_pbe_-0001_z.gbw
Electron density file                           ... fh-oh_pbe_-0001_z.scfp.tmp
The origin for moment calculation is the CENTER OF MASS  = ( 0.194920,  0.000000 -0.679422)

-------------
DIPOLE MOMENT
-------------
                                X             Y             Z
Electronic contribution:     -0.29199       0.00000       1.34403
Nuclear contribution   :      0.93855       0.00000      -2.47969
                        -----------------------------------------
Total Dipole Moment    :      0.64656       0.00000      -1.13565
                        -----------------------------------------
Magnitude (a.u.)       :      1.30681
Magnitude (Debye)      :      3.32164



--------------------
Rotational spectrum 
--------------------
 
Rotational constants in cm-1:    21.356998     0.246472     0.243660 
Rotational constants in MHz : 640266.678212  7389.040107  7304.739279 

 Dipole components along the rotational axes: 
x,y,z [a.u.] :     1.187159     0.546254    -0.000000 
x,y,z [Debye]:     3.017519     1.388468    -0.000000 

 

Timings for individual modules:

Sum of individual times         ...     1064.454 sec (=  17.741 min)
GTO integral calculation        ...        1.737 sec (=   0.029 min)   0.2 %
SCF iterations                  ...     1062.718 sec (=  17.712 min)  99.8 %
                             ****ORCA TERMINATED NORMALLY****
TOTAL RUN TIME: 0 days 0 hours 17 minutes 45 seconds 375 msec
