
                                 *****************
                                 * O   R   C   A *
                                 *****************

           --- An Ab Initio, DFT and Semiempirical electronic structure package ---

                  #######################################################
                  #                        -***-                        #
                  #          Department of theory and spectroscopy      #
                  #               Directorship: Frank Neese             #
                  #        Max Planck Institute fuer Kohlenforschung    #
                  #                Kaiser Wilhelm Platz 1               #
                  #                 D-45470 Muelheim/Ruhr               #
                  #                      Germany                        #
                  #                                                     #
                  #                  All rights reserved                #
                  #                        -***-                        #
                  #######################################################


                         Program Version 4.1.2  - RELEASE  -


 With contributions from (in alphabetic order):
   Daniel Aravena         : Magnetic Properties
   Michael Atanasov       : Ab Initio Ligand Field Theory
   Alexander A. Auer      : GIAO ZORA
   Ute Becker             : Parallelization
   Giovanni Bistoni       : ED, Open-shell LED
   Martin Brehm           : Molecular dynamics
   Dmytro Bykov           : SCF Hessian
   Vijay G. Chilkuri      : MRCI spin determinant printing
   Dipayan Datta          : RHF DLPNO-CCSD density
   Achintya Kumar Dutta   : EOM-CC, STEOM-CC
   Dmitry Ganyushin       : Spin-Orbit,Spin-Spin,Magnetic field MRCI
   Miquel Garcia          : C-PCM Hessian
   Yang Guo               : DLPNO-NEVPT2, CIM, IAO-localization
   Andreas Hansen         : Spin unrestricted coupled pair/coupled cluster methods
   Benjamin Helmich-Paris : CASSCF linear response (MC-RPA)
   Lee Huntington         : MR-EOM, pCC
   Robert Izsak           : Overlap fitted RIJCOSX, COSX-SCS-MP3, EOM
   Christian Kollmar      : KDIIS, OOCD, Brueckner-CCSD(T), CCSD density
   Simone Kossmann        : Meta GGA functionals, TD-DFT gradient, OOMP2, MP2 Hessian
   Martin Krupicka        : AUTO-CI
   Lucas Lang             : DCDCAS
   Dagmar Lenk            : GEPOL surface, SMD
   Dimitrios Liakos       : Extrapolation schemes; parallel MDCI
   Dimitrios Manganas     : ROCIS; embedding schemes
   Dimitrios Pantazis     : SARC Basis sets
   Taras Petrenko         : DFT Hessian,TD-DFT gradient, ASA, ECA, R-Raman, ABS, FL, XAS/XES, NRVS
   Peter Pinski           : DLPNO-MP2, DLPNO-MP2 Gradient
   Christoph Reimann      : Effective Core Potentials
   Marius Retegan         : Local ZFS, SOC
   Christoph Riplinger    : Optimizer, TS searches, QM/MM, DLPNO-CCSD(T), (RO)-DLPNO pert. Triples
   Tobias Risthaus        : Range-separated hybrids, TD-DFT gradient, RPA, STAB
   Michael Roemelt        : Restricted open shell CIS
   Masaaki Saitow         : Open-shell DLPNO
   Barbara Sandhoefer     : DKH picture change effects
   Avijit Sen             : IP-ROCIS
   Kantharuban Sivalingam : CASSCF convergence, NEVPT2, FIC-MRCI
   Bernardo de Souza      : ESD, SOC TD-DFT
   Georgi Stoychev        : AutoAux, RI-MP2 NMR
   Willem Van den Heuvel  : Paramagnetic NMR
   Boris Wezisla          : Elementary symmetry handling
   Frank Wennmohs         : Technical directorship


 We gratefully acknowledge several colleagues who have allowed us to
 interface, adapt or use parts of their codes:
   Stefan Grimme, W. Hujo, H. Kruse,             : VdW corrections, initial TS optimization,
                  C. Bannwarth                     DFT functionals, gCP, sTDA/sTD-DF
   Ed Valeev                                     : LibInt (2-el integral package), F12 methods
   Garnet Chan, S. Sharma, J. Yang, R. Olivares  : DMRG
   Ulf Ekstrom                                   : XCFun DFT Library
   Mihaly Kallay                                 : mrcc  (arbitrary order and MRCC methods)
   Andreas Klamt, Michael Diedenhofen            : otool_cosmo (COSMO solvation model)
   Jiri Pittner, Ondrej Demel                    : Mk-CCSD
   Frank Weinhold                                : gennbo (NPA and NBO analysis)
   Christopher J. Cramer and Donald G. Truhlar   : smd solvation model
   Lars Goerigk                                  : TD-DFT with DH, B97 family of functionals
   V. Asgeirsson, H. Jonsson                     : NEB implementation
   FAccTs GmbH                                   : IRC, NEB, NEB-TS, Multilevel


 Your calculation uses the libint2 library for the computation of 2-el integrals
 For citations please refer to: http://libint.valeyev.net

 This ORCA versions uses:
   CBLAS   interface :  Fast vector & matrix operations
   LAPACKE interface :  Fast linear algebra routines
   SCALAPACK package :  Parallel linear algebra routines


----- Orbital basis set information -----
Your calculation utilizes the basis: aug-pc-4
   H, C-F              : F. Jensen, J. Chem. Phys. 115, 9113 (2001).
                         F. Jensen, J. Chem. Phys. 116, 7372 (2002).
                         F. Jensen, J. Chem. Phys. 117, 9234 (2002).
   Si-Cl               : F. Jensen, T. Helgaker, J. Chem. Phys. 121, 3463 (2004).
   He-B, Ne-Mg, Al, Ar : F. Jensen, J. Phys. Chem. A 111, 11198 (2007).
   K, Ca, Ga-Kr        : F. Jensen, J. Chem. Phys. 136, 094110 (2012).
   Sc-Zn               : F. Jensen, J. Chem. Phys. 138, 014107 (2013).

================================================================================
                                        WARNINGS
                       Please study these warnings very carefully!
================================================================================


INFO   : the flag for use of LIBINT has been found!

================================================================================
                                       INPUT FILE
================================================================================
NAME = fh-oh_pbe_+0001_y.inp
|  1> !uks pbe nori aug-pc-4 grid5 nofinalgrid verytightscf
|  2> 
|  3> %maxcore 6000
|  4> 
|  5> %pal nprocs 4 end
|  6> 
|  7> %scf
|  8> 	efield 0.0, 0.001, 0.0
|  9> 	maxiter 200
| 10> end
| 11> 
| 12> * xyz 0 2
| 13> H 0.000000 0.000000 0.000000
| 14> F 0.000000 0.000000 0.927729
| 15> O 0.169084 0.000000 -1.803099
| 16> H 1.103782 0.000000 -2.068116
| 17> *
| 18> 
| 19>                          ****END OF INPUT****
================================================================================

                       ****************************
                       * Single Point Calculation *
                       ****************************

---------------------------------
CARTESIAN COORDINATES (ANGSTROEM)
---------------------------------
  H      0.000000    0.000000    0.000000
  F      0.000000    0.000000    0.927729
  O      0.169084    0.000000   -1.803099
  H      1.103782    0.000000   -2.068116

----------------------------
CARTESIAN COORDINATES (A.U.)
----------------------------
  NO LB      ZA    FRAG     MASS         X           Y           Z
   0 H     1.0000    0     1.008    0.000000    0.000000    0.000000
   1 F     9.0000    0    18.998    0.000000    0.000000    1.753154
   2 O     8.0000    0    15.999    0.319522    0.000000   -3.407363
   3 H     1.0000    0     1.008    2.085846    0.000000   -3.908173

--------------------------------
INTERNAL COORDINATES (ANGSTROEM)
--------------------------------
 H      0   0   0     0.000000000000     0.00000000     0.00000000
 F      1   0   0     0.927729000000     0.00000000     0.00000000
 O      1   2   0     1.811009498279   174.64280572     0.00000000
 H      3   1   2     0.971542259242   111.18693629     0.00000000

---------------------------
INTERNAL COORDINATES (A.U.)
---------------------------
 H      0   0   0     0.000000000000     0.00000000     0.00000000
 F      1   0   0     1.753153736497     0.00000000     0.00000000
 O      1   2   0     3.422311977678   174.64280572     0.00000000
 H      3   1   2     1.835948797498   111.18693629     0.00000000

---------------------
BASIS SET INFORMATION
---------------------
There are 3 groups of distinct atoms

 Group   1 Type H   : 12s7p4d3f2g contracted to 8s7p4d3f2g pattern {51111111/1111111/1111/111/11}
 Group   2 Type F   : 27s12p7d4f3g2h contracted to 9s8p7d4f3g2h pattern {1191111111/51111111/1111111/1111/111/11}
 Group   3 Type O   : 27s12p7d4f3g2h contracted to 9s8p7d4f3g2h pattern {1191111111/51111111/1111111/1111/111/11}

Atom   0H    basis set group =>   1
Atom   1F    basis set group =>   2
Atom   2O    basis set group =>   3
Atom   3H    basis set group =>   1


           ************************************************************
           *        Program running with 4 parallel MPI-processes     *
           *              working on a common directory               *
           ************************************************************
------------------------------------------------------------------------------
                           ORCA GTO INTEGRAL CALCULATION
------------------------------------------------------------------------------

                         BASIS SET STATISTICS AND STARTUP INFO

 # of primitive gaussian shells          ...  166
 # of primitive gaussian functions       ...  534
 # of contracted shells                  ...  114
 # of contracted basis functions         ...  466
 Highest angular momentum                ...    5
 Maximum contraction depth               ...   11
 Integral package used                   ... LIBINT
 Integral threshhold            Thresh   ...  1.000e-12
 Primitive cut-off              TCut     ...  1.000e-14


------------------------------ INTEGRAL EVALUATION ----------------------------


 * One electron integrals 
 Pre-screening matrix                    ... done
 Shell pair data                         ... done (   0.002 sec)


An Electric Field will be added: 0.000e+00 1.000e-03 0.000e+00 au

  ... done adding electric field perturbation



           ************************************************************
           *        Program running with 4 parallel MPI-processes     *
           *              working on a common directory               *
           ************************************************************
-------------------------------------------------------------------------------
                                 ORCA SCF
-------------------------------------------------------------------------------

------------
SCF SETTINGS
------------
Hamiltonian:
 Density Functional     Method          .... DFT(GTOs)
 Exchange Functional    Exchange        .... PBE
   PBE kappa parameter   XKappa         ....  0.804000
   PBE mue parameter    XMuePBE         ....  0.219520
 Correlation Functional Correlation     .... PBE
   PBE beta parameter  CBetaPBE         ....  0.066725
 LDA part of GGA corr.  LDAOpt          .... PW91-LDA
 Gradients option       PostSCFGGA      .... off
   Density functional embedding theory  .... OFF
   NL short-range parameter             ....  6.400000


General Settings:
 Integral files         IntName         .... fh-oh_pbe_+0001_y
 Hartree-Fock type      HFTyp           .... UHF
 Total Charge           Charge          ....    0
 Multiplicity           Mult            ....    2
 Number of Electrons    NEL             ....   19
 Basis Dimension        Dim             ....  466
 Nuclear Repulsion      ENuc            ....     27.4714926964 Eh

Convergence Acceleration:
 DIIS                   CNVDIIS         .... on
   Start iteration      DIISMaxIt       ....    12
   Startup error        DIISStart       ....  0.200000
   # of expansion vecs  DIISMaxEq       ....     5
   Bias factor          DIISBfac        ....   1.050
   Max. coefficient     DIISMaxC        ....  10.000
 Newton-Raphson         CNVNR           .... off
 SOSCF                  CNVSOSCF        .... off
 Level Shifting         CNVShift        .... on
   Level shift para.    LevelShift      ....    0.2500
   Turn off err/grad.   ShiftErr        ....    0.0010
 Zerner damping         CNVZerner       .... off
 Static damping         CNVDamp         .... on
   Fraction old density DampFac         ....    0.7000
   Max. Damping (<1)    DampMax         ....    0.9800
   Min. Damping (>=0)   DampMin         ....    0.0000
   Turn off err/grad.   DampErr         ....    0.1000
 Fernandez-Rico         CNVRico         .... off

SCF Procedure:
 Maximum # iterations   MaxIter         ....   200
 SCF integral mode      SCFMode         .... Direct
   Integral package                     .... LIBINT
 Reset frequency        DirectResetFreq ....    20
 Integral Threshold     Thresh          ....  1.000e-12 Eh
 Primitive CutOff       TCut            ....  1.000e-14 Eh

Convergence Tolerance:
 Convergence Check Mode ConvCheckMode   .... Total+1el-Energy
 Convergence forced     ConvForced      .... 0
 Energy Change          TolE            ....  1.000e-09 Eh
 1-El. energy change                    ....  1.000e-06 Eh
 DIIS Error             TolErr          ....  1.000e-08


Diagonalization of the overlap matrix:
Smallest eigenvalue                        ... 1.255e-06
Time for diagonalization                   ...    0.168 sec
Threshold for overlap eigenvalues          ... 1.000e-08
Number of eigenvalues below threshold      ... 0
Time for construction of square roots      ...    0.036 sec
Total time needed                          ...    0.205 sec

-------------------
DFT GRID GENERATION
-------------------

General Integration Accuracy     IntAcc      ...  5.010
Radial Grid Type                 RadialGrid  ... Gauss-Chebyshev
Angular Grid (max. acc.)         AngularGrid ... Lebedev-434
Angular grid pruning method      GridPruning ... 3 (G Style)
Weight generation scheme         WeightScheme... Becke
Basis function cutoff            BFCut       ...    1.0000e-12
Integration weight cutoff        WCut        ...    1.0000e-14
Grids for H and He will be reduced by one unit

# of grid points (after initial pruning)     ...  35044 (   0.0 sec)
# of grid points (after weights+screening)   ...  34560 (   0.0 sec)
nearest neighbour list constructed           ...    0.0 sec
Grid point re-assignment to atoms done       ...    0.0 sec
Grid point division into batches done        ...    0.2 sec
Reduced shell lists constructed in    0.4 sec

Total number of grid points                  ...    34560
Total number of batches                      ...      543
Average number of points per batch           ...       63
Average number of grid points per atom       ...     8640
Average number of shells per batch           ...    79.20 (69.48%)
Average number of basis functions per batch  ...   337.18 (72.36%)
Average number of large shells per batch     ...    69.94 (88.31%)
Average number of large basis fcns per batch ...   299.27 (88.76%)
Maximum spatial batch extension              ...  14.02, 13.43, 13.76 au
Average spatial batch extension              ...   0.88,  0.86,  0.72 au

Time for grid setup =    0.458 sec

------------------------------
INITIAL GUESS: MODEL POTENTIAL
------------------------------
Loading Hartree-Fock densities                     ... done
Calculating cut-offs                               ... done
Setting up the integral package                    ... done
Initializing the effective Hamiltonian             ... done
Starting the Coulomb interaction                   ... done (   0.0 sec)
Reading the grid                                   ... done
Mapping shells                                     ... done
Starting the XC term evaluation                    ... done (   0.7 sec)
  promolecular density results
     # of electrons  =     18.999023143
     EX              =    -18.655804200
     EC              =     -0.616543038
     EX+EC           =    -19.272347239
Transforming the Hamiltonian                       ... done (   0.0 sec)
Diagonalizing the Hamiltonian                      ... done (   0.1 sec)
Back transforming the eigenvectors                 ... done (   0.0 sec)
Now organizing SCF variables                       ... done
                      ------------------
                      INITIAL GUESS DONE (   1.4 sec)
                      ------------------
--------------
SCF ITERATIONS
--------------
ITER       Energy         Delta-E        Max-DP      RMS-DP      [F,P]     Damp
               ***  Starting incremental Fock matrix formation  ***
  0   -176.0528689310   0.000000000000 0.00870481  0.00009853  0.2125416 0.7000
  1   -176.0779204940  -0.025051562945 0.00591784  0.00006270  0.0640825 0.7000
                               ***Turning on DIIS***
  2   -176.0854651400  -0.007544646065 0.01094667  0.00009717  0.0160409 0.0000
  3   -176.1016295044  -0.016164364316 0.00253043  0.00003316  0.0351435 0.0000
  4   -176.1034944188  -0.001864914472 0.00106047  0.00001217  0.0094256 0.0000
  5   -176.1035952990  -0.000100880177 0.00044852  0.00000392  0.0035912 0.0000
  6   -176.1036097412  -0.000014442193 0.00024217  0.00000285  0.0003645 0.0000
  7   -176.1036113277  -0.000001586525 0.00004532  0.00000054  0.0003195 0.0000
  8   -176.1036115233  -0.000000195548 0.00001862  0.00000020  0.0000704 0.0000
  9   -176.1036115476  -0.000000024364 0.00001150  0.00000008  0.0000168 0.0000
 10   -176.1036115517  -0.000000004094 0.00001188  0.00000007  0.0000095 0.0000
 11   -176.1036115540  -0.000000002279 0.00001317  0.00000008  0.0000083 0.0000
 12   -176.1036115560  -0.000000001983 0.00003210  0.00000019  0.0000069 0.0000
 13   -176.1036115593  -0.000000003280 0.00002534  0.00000015  0.0000036 0.0000
 14   -176.1036115605  -0.000000001195 0.00000832  0.00000005  0.0000013 0.0000
 15   -176.1036115606  -0.000000000112 0.00000092  0.00000001  0.0000007 0.0000
 16   -176.1036115606   0.000000000000 0.00000343  0.00000003  0.0000004 0.0000
                 **** Energy Check signals convergence ****

               *****************************************************
               *                     SUCCESS                       *
               *           SCF CONVERGED AFTER  17 CYCLES          *
               *****************************************************


----------------
TOTAL SCF ENERGY
----------------

Total Energy       :         -176.10361156 Eh           -4792.02289 eV

Components:
Nuclear Repulsion  :           27.47149270 Eh             747.53732 eV
Electronic Energy  :         -203.57510426 Eh           -5539.56021 eV
One Electron Energy:         -298.74736364 Eh           -8129.32905 eV
Two Electron Energy:           95.17225939 Eh            2589.76884 eV

Virial components:
Potential Energy   :         -351.72759119 Eh           -9570.99434 eV
Kinetic Energy     :          175.62397963 Eh            4778.97144 eV
Virial Ratio       :            2.00273102


DFT components:
N(Alpha)           :       10.000000977119 electrons
N(Beta)            :        9.000000896575 electrons
N(Total)           :       19.000001873694 electrons
E(X)               :      -18.908581543342 Eh       
E(C)               :       -0.617650045276 Eh       
E(XC)              :      -19.526231588618 Eh       
DFET-embed. en.    :        0.000000000000 Eh       

---------------
SCF CONVERGENCE
---------------

  Last Energy change         ...   -7.9581e-12  Tolerance :   1.0000e-09
  Last MAX-Density change    ...    4.7014e-06  Tolerance :   1.0000e-08
  Last RMS-Density change    ...    4.2291e-08  Tolerance :   1.0000e-09
  Last DIIS Error            ...    5.5329e-08  Tolerance :   1.0000e-08

             **** THE GBW FILE WAS UPDATED (fh-oh_pbe_+0001_y.gbw) ****
             **** DENSITY FILE WAS UPDATED (fh-oh_pbe_+0001_y.scfp.tmp) ****
             **** ENERGY FILE WAS UPDATED (fh-oh_pbe_+0001_y.en.tmp) ****
----------------------
UHF SPIN CONTAMINATION
----------------------

Warning: in a DFT calculation there is little theoretical justification to 
         calculate <S**2> as in Hartree-Fock theory. We will do it anyways
         but you should keep in mind that the values have only limited relevance

Expectation value of <S**2>     :     0.752393
Ideal value S*(S+1) for S=0.5   :     0.750000
Deviation                       :     0.002393

----------------
ORBITAL ENERGIES
----------------
                 SPIN UP ORBITALS
  NO   OCC          E(Eh)            E(eV) 
   0   1.0000     -24.222694      -659.1330 
   1   1.0000     -18.872980      -513.5599 
   2   1.0000      -1.074070       -29.2269 
   3   1.0000      -0.979501       -26.6536 
   4   1.0000      -0.487952       -13.2778 
   5   1.0000      -0.456622       -12.4253 
   6   1.0000      -0.409961       -11.1556 
   7   1.0000      -0.341494        -9.2925 
   8   1.0000      -0.329732        -8.9725 
   9   1.0000      -0.328036        -8.9263 
  10   0.0000      -0.048526        -1.3205 
  11   0.0000       0.009554         0.2600 
  12   0.0000       0.018700         0.5088 
  13   0.0000       0.020718         0.5638 
  14   0.0000       0.030519         0.8305 
  15   0.0000       0.049682         1.3519 
  16   0.0000       0.057428         1.5627 
  17   0.0000       0.061502         1.6736 
  18   0.0000       0.063558         1.7295 
  19   0.0000       0.077910         2.1200 
  20   0.0000       0.080323         2.1857 
  21   0.0000       0.096271         2.6197 
  22   0.0000       0.108020         2.9394 
  23   0.0000       0.112569         3.0631 
  24   0.0000       0.114902         3.1266 
  25   0.0000       0.126474         3.4415 
  26   0.0000       0.136940         3.7263 
  27   0.0000       0.140942         3.8352 
  28   0.0000       0.150266         4.0889 
  29   0.0000       0.157074         4.2742 
  30   0.0000       0.165492         4.5033 
  31   0.0000       0.166884         4.5412 
  32   0.0000       0.187861         5.1120 
  33   0.0000       0.194319         5.2877 
  34   0.0000       0.203944         5.5496 
  35   0.0000       0.207987         5.6596 
  36   0.0000       0.217430         5.9166 
  37   0.0000       0.221153         6.0179 
  38   0.0000       0.222258         6.0479 
  39   0.0000       0.226779         6.1710 
  40   0.0000       0.232693         6.3319 
  41   0.0000       0.245952         6.6927 
  42   0.0000       0.247232         6.7275 
  43   0.0000       0.253178         6.8893 
  44   0.0000       0.268258         7.2997 
  45   0.0000       0.269645         7.3374 
  46   0.0000       0.287049         7.8110 
  47   0.0000       0.293409         7.9841 
  48   0.0000       0.310688         8.4543 
  49   0.0000       0.315820         8.5939 
  50   0.0000       0.316539         8.6135 
  51   0.0000       0.330665         8.9979 
  52   0.0000       0.343773         9.3545 
  53   0.0000       0.359504         9.7826 
  54   0.0000       0.364141         9.9088 
  55   0.0000       0.366600         9.9757 
  56   0.0000       0.368170        10.0184 
  57   0.0000       0.376312        10.2400 
  58   0.0000       0.385260        10.4834 
  59   0.0000       0.389032        10.5861 
  60   0.0000       0.397680        10.8214 
  61   0.0000       0.415875        11.3165 
  62   0.0000       0.416583        11.3358 
  63   0.0000       0.419553        11.4166 
  64   0.0000       0.428067        11.6483 
  65   0.0000       0.444793        12.1034 
  66   0.0000       0.451557        12.2875 
  67   0.0000       0.454864        12.3775 
  68   0.0000       0.463155        12.6031 
  69   0.0000       0.475990        12.9524 
  70   0.0000       0.483341        13.1524 
  71   0.0000       0.485280        13.2052 
  72   0.0000       0.492583        13.4039 
  73   0.0000       0.496326        13.5057 
  74   0.0000       0.500702        13.6248 
  75   0.0000       0.504148        13.7186 
  76   0.0000       0.516638        14.0584 
  77   0.0000       0.520214        14.1557 
  78   0.0000       0.529030        14.3956 
  79   0.0000       0.533833        14.5263 
  80   0.0000       0.537936        14.6380 
  81   0.0000       0.554762        15.0959 
  82   0.0000       0.564534        15.3617 
  83   0.0000       0.572826        15.5874 
  84   0.0000       0.579869        15.7790 
  85   0.0000       0.584222        15.8975 
  86   0.0000       0.591077        16.0840 
  87   0.0000       0.607072        16.5193 
  88   0.0000       0.611732        16.6461 
  89   0.0000       0.619478        16.8569 
  90   0.0000       0.629938        17.1415 
  91   0.0000       0.636679        17.3249 
  92   0.0000       0.652445        17.7539 
  93   0.0000       0.658641        17.9225 
  94   0.0000       0.678816        18.4715 
  95   0.0000       0.681442        18.5430 
  96   0.0000       0.716480        19.4964 
  97   0.0000       0.717082        19.5128 
  98   0.0000       0.728121        19.8132 
  99   0.0000       0.732437        19.9306 
 100   0.0000       0.738779        20.1032 
 101   0.0000       0.744043        20.2464 
 102   0.0000       0.750241        20.4151 
 103   0.0000       0.761073        20.7098 
 104   0.0000       0.762497        20.7486 
 105   0.0000       0.766842        20.8668 
 106   0.0000       0.778956        21.1965 
 107   0.0000       0.785597        21.3772 
 108   0.0000       0.792812        21.5735 
 109   0.0000       0.805430        21.9169 
 110   0.0000       0.813967        22.1492 
 111   0.0000       0.839808        22.8523 
 112   0.0000       0.846426        23.0324 
 113   0.0000       0.855975        23.2923 
 114   0.0000       0.860798        23.4235 
 115   0.0000       0.869503        23.6604 
 116   0.0000       0.881007        23.9734 
 117   0.0000       0.903699        24.5909 
 118   0.0000       0.904870        24.6228 
 119   0.0000       0.915003        24.8985 
 120   0.0000       0.939139        25.5553 
 121   0.0000       0.940783        25.6000 
 122   0.0000       0.951423        25.8895 
 123   0.0000       0.955755        26.0074 
 124   0.0000       0.972625        26.4665 
 125   0.0000       0.976196        26.5636 
 126   0.0000       0.983868        26.7724 
 127   0.0000       0.996207        27.1082 
 128   0.0000       0.997591        27.1458 
 129   0.0000       1.019745        27.7487 
 130   0.0000       1.024316        27.8731 
 131   0.0000       1.036148        28.1950 
 132   0.0000       1.042676        28.3727 
 133   0.0000       1.043919        28.4065 
 134   0.0000       1.051900        28.6236 
 135   0.0000       1.061453        28.8836 
 136   0.0000       1.072065        29.1724 
 137   0.0000       1.078017        29.3343 
 138   0.0000       1.084565        29.5125 
 139   0.0000       1.103922        30.0393 
 140   0.0000       1.104219        30.0473 
 141   0.0000       1.127886        30.6913 
 142   0.0000       1.137237        30.9458 
 143   0.0000       1.161749        31.6128 
 144   0.0000       1.174672        31.9645 
 145   0.0000       1.182428        32.1755 
 146   0.0000       1.191455        32.4211 
 147   0.0000       1.194791        32.5119 
 148   0.0000       1.203728        32.7551 
 149   0.0000       1.217265        33.1235 
 150   0.0000       1.217644        33.1338 
 151   0.0000       1.237831        33.6831 
 152   0.0000       1.257605        34.2212 
 153   0.0000       1.288492        35.0617 
 154   0.0000       1.329666        36.1820 
 155   0.0000       1.329758        36.1846 
 156   0.0000       1.343521        36.5591 
 157   0.0000       1.348093        36.6835 
 158   0.0000       1.353431        36.8287 
 159   0.0000       1.368497        37.2387 
 160   0.0000       1.384756        37.6811 
 161   0.0000       1.386389        37.7256 
 162   0.0000       1.411776        38.4164 
 163   0.0000       1.434277        39.0287 
 164   0.0000       1.461279        39.7634 
 165   0.0000       1.461651        39.7736 
 166   0.0000       1.484358        40.3914 
 167   0.0000       1.492741        40.6195 
 168   0.0000       1.513167        41.1754 
 169   0.0000       1.545572        42.0572 
 170   0.0000       1.575296        42.8660 
 171   0.0000       1.579919        42.9918 
 172   0.0000       1.582223        43.0545 
 173   0.0000       1.622513        44.1508 
 174   0.0000       1.633352        44.4458 
 175   0.0000       1.653969        45.0068 
 176   0.0000       1.692760        46.0623 
 177   0.0000       1.728873        47.0450 
 178   0.0000       1.745726        47.5036 
 179   0.0000       1.759301        47.8730 
 180   0.0000       1.782455        48.5031 
 181   0.0000       1.800684        48.9991 
 182   0.0000       1.849080        50.3160 
 183   0.0000       1.883279        51.2466 
 184   0.0000       1.893880        51.5351 
 185   0.0000       1.928225        52.4697 
 186   0.0000       1.991906        54.2025 
 187   0.0000       2.023390        55.0592 
 188   0.0000       2.074472        56.4492 
 189   0.0000       2.105871        57.3037 
 190   0.0000       2.167716        58.9866 
 191   0.0000       2.200765        59.8859 
 192   0.0000       2.243383        61.0456 
 193   0.0000       2.272968        61.8506 
 194   0.0000       2.304516        62.7091 
 195   0.0000       2.315447        63.0065 
 196   0.0000       2.373957        64.5987 
 197   0.0000       2.375332        64.6361 
 198   0.0000       2.400150        65.3114 
 199   0.0000       2.400962        65.3335 
 200   0.0000       2.419141        65.8282 
 201   0.0000       2.423989        65.9601 
 202   0.0000       2.483885        67.5900 
 203   0.0000       2.517295        68.4991 
 204   0.0000       2.584799        70.3360 
 205   0.0000       2.637529        71.7708 
 206   0.0000       2.662694        72.4556 
 207   0.0000       2.777644        75.5835 
 208   0.0000       2.831885        77.0595 
 209   0.0000       2.846095        77.4462 
 210   0.0000       2.880126        78.3722 
 211   0.0000       2.912671        79.2578 
 212   0.0000       2.932855        79.8070 
 213   0.0000       2.989351        81.3444 
 214   0.0000       3.160927        86.0132 
 215   0.0000       3.250668        88.4552 
 216   0.0000       3.320292        90.3497 
 217   0.0000       3.358111        91.3788 
 218   0.0000       3.389371        92.2295 
 219   0.0000       3.404202        92.6330 
 220   0.0000       3.421458        93.1026 
 221   0.0000       3.444873        93.7398 
 222   0.0000       3.495507        95.1176 
 223   0.0000       3.524350        95.9024 
 224   0.0000       3.562200        96.9324 
 225   0.0000       3.591731        97.7360 
 226   0.0000       3.593737        97.7905 
 227   0.0000       3.654600        99.4467 
 228   0.0000       3.710211       100.9600 
 229   0.0000       3.722999       101.3080 
 230   0.0000       3.747776       101.9822 
 231   0.0000       3.882991       105.6616 
 232   0.0000       3.923495       106.7637 
 233   0.0000       3.936475       107.1169 
 234   0.0000       3.938375       107.1686 
 235   0.0000       3.955669       107.6392 
 236   0.0000       4.045871       110.0938 
 237   0.0000       4.110407       111.8499 
 238   0.0000       4.113804       111.9423 
 239   0.0000       4.225267       114.9754 
 240   0.0000       4.229188       115.0820 
 241   0.0000       4.265895       116.0809 
 242   0.0000       4.309372       117.2640 
 243   0.0000       4.467641       121.5707 
 244   0.0000       4.505594       122.6035 
 245   0.0000       4.528541       123.2279 
 246   0.0000       4.573171       124.4423 
 247   0.0000       4.622349       125.7805 
 248   0.0000       4.735185       128.8509 
 249   0.0000       4.895667       133.2179 
 250   0.0000       4.930402       134.1631 
 251   0.0000       5.025087       136.7396 
 252   0.0000       5.203764       141.6016 
 253   0.0000       5.244390       142.7071 
 254   0.0000       5.271895       143.4556 
 255   0.0000       5.278266       143.6289 
 256   0.0000       5.368275       146.0782 
 257   0.0000       5.417969       147.4304 
 258   0.0000       5.422736       147.5602 
 259   0.0000       5.492424       149.4565 
 260   0.0000       5.548664       150.9868 
 261   0.0000       5.576116       151.7338 
 262   0.0000       5.589715       152.1039 
 263   0.0000       5.615958       152.8180 
 264   0.0000       5.730171       155.9259 
 265   0.0000       5.797589       157.7604 
 266   0.0000       6.001153       163.2997 
 267   0.0000       6.001581       163.3113 
 268   0.0000       6.071636       165.2176 
 269   0.0000       6.131064       166.8347 
 270   0.0000       6.178447       168.1241 
 271   0.0000       6.199151       168.6875 
 272   0.0000       6.201198       168.7432 
 273   0.0000       6.203969       168.8186 
 274   0.0000       6.303654       171.5311 
 275   0.0000       6.346950       172.7093 
 276   0.0000       6.519756       177.4116 
 277   0.0000       6.547591       178.1690 
 278   0.0000       6.641480       180.7239 
 279   0.0000       6.656935       181.1444 
 280   0.0000       6.858095       186.6183 
 281   0.0000       7.014486       190.8739 
 282   0.0000       7.120376       193.7553 
 283   0.0000       7.131930       194.0697 
 284   0.0000       7.158987       194.8059 
 285   0.0000       7.159827       194.8288 
 286   0.0000       7.281366       198.1360 
 287   0.0000       7.316679       199.0970 
 288   0.0000       7.361687       200.3217 
 289   0.0000       7.392999       201.1737 
 290   0.0000       7.409947       201.6349 
 291   0.0000       7.417789       201.8483 
 292   0.0000       7.443290       202.5422 
 293   0.0000       7.599947       206.8051 
 294   0.0000       8.233302       224.0395 
 295   0.0000       8.297414       225.7841 
 296   0.0000       8.329532       226.6581 
 297   0.0000       8.344650       227.0695 
 298   0.0000       8.347586       227.1493 
 299   0.0000       8.399524       228.5627 
 300   0.0000       8.532085       232.1698 
 301   0.0000       8.766344       238.5443 
 302   0.0000       8.771832       238.6937 
 303   0.0000       8.810231       239.7386 
 304   0.0000       8.862413       241.1585 
 305   0.0000       9.000320       244.9112 
 306   0.0000       9.094526       247.4746 
 307   0.0000       9.122871       248.2459 
 308   0.0000       9.198604       250.3067 
 309   0.0000       9.324143       253.7228 
 310   0.0000       9.394067       255.6255 
 311   0.0000       9.601405       261.2675 
 312   0.0000       9.749857       265.3071 
 313   0.0000       9.992965       271.9224 
 314   0.0000      10.347059       281.5578 
 315   0.0000      10.494138       285.5600 
 316   0.0000      10.645192       289.6704 
 317   0.0000      10.665774       290.2305 
 318   0.0000      10.775476       293.2156 
 319   0.0000      10.892760       296.4071 
 320   0.0000      11.078316       301.4563 
 321   0.0000      11.273350       306.7635 
 322   0.0000      11.478474       312.3452 
 323   0.0000      11.630479       316.4814 
 324   0.0000      11.675946       317.7187 
 325   0.0000      11.705848       318.5323 
 326   0.0000      11.745092       319.6002 
 327   0.0000      11.783365       320.6417 
 328   0.0000      11.893702       323.6441 
 329   0.0000      11.909059       324.0620 
 330   0.0000      11.918505       324.3190 
 331   0.0000      11.970835       325.7430 
 332   0.0000      12.009102       326.7843 
 333   0.0000      12.054629       328.0231 
 334   0.0000      12.057136       328.0913 
 335   0.0000      12.061947       328.2223 
 336   0.0000      12.096402       329.1598 
 337   0.0000      12.284849       334.2877 
 338   0.0000      12.304046       334.8101 
 339   0.0000      12.329222       335.4952 
 340   0.0000      12.414017       337.8026 
 341   0.0000      12.507060       340.3344 
 342   0.0000      12.527335       340.8861 
 343   0.0000      12.553560       341.5997 
 344   0.0000      12.622976       343.4886 
 345   0.0000      12.623184       343.4943 
 346   0.0000      12.666674       344.6777 
 347   0.0000      12.666790       344.6809 
 348   0.0000      12.712497       345.9246 
 349   0.0000      12.720775       346.1499 
 350   0.0000      12.720781       346.1500 
 351   0.0000      12.746194       346.8416 
 352   0.0000      12.826525       349.0275 
 353   0.0000      12.831482       349.1624 
 354   0.0000      13.041713       354.8831 
 355   0.0000      13.068076       355.6004 
 356   0.0000      13.068616       355.6151 
 357   0.0000      13.649059       371.4098 
 358   0.0000      13.679164       372.2290 
 359   0.0000      13.701799       372.8449 
 360   0.0000      13.748607       374.1186 
 361   0.0000      13.775010       374.8371 
 362   0.0000      14.002100       381.0165 
 363   0.0000      14.276928       388.4950 
 364   0.0000      14.322014       389.7218 
 365   0.0000      14.495873       394.4528 
 366   0.0000      14.601378       397.3237 
 367   0.0000      14.677281       399.3891 
 368   0.0000      14.699871       400.0038 
 369   0.0000      14.736037       400.9880 
 370   0.0000      15.038272       409.2122 
 371   0.0000      15.039556       409.2471 
 372   0.0000      15.063296       409.8931 
 373   0.0000      15.394324       418.9008 
 374   0.0000      15.522172       422.3798 
 375   0.0000      15.523288       422.4101 
 376   0.0000      15.611511       424.8108 
 377   0.0000      15.731652       428.0800 
 378   0.0000      16.252718       442.2590 
 379   0.0000      16.652475       453.1369 
 380   0.0000      16.659299       453.3226 
 381   0.0000      16.778928       456.5778 
 382   0.0000      16.779032       456.5807 
 383   0.0000      16.917018       460.3355 
 384   0.0000      16.959474       461.4907 
 385   0.0000      16.965283       461.6488 
 386   0.0000      17.015090       463.0041 
 387   0.0000      17.041679       463.7277 
 388   0.0000      17.138400       466.3596 
 389   0.0000      17.143084       466.4870 
 390   0.0000      17.367905       472.6047 
 391   0.0000      17.424993       474.1582 
 392   0.0000      17.580293       478.3841 
 393   0.0000      17.584137       478.4887 
 394   0.0000      17.632673       479.8094 
 395   0.0000      17.662761       480.6282 
 396   0.0000      17.838806       485.4186 
 397   0.0000      17.839477       485.4368 
 398   0.0000      17.853935       485.8303 
 399   0.0000      18.249508       496.5944 
 400   0.0000      18.277822       497.3648 
 401   0.0000      18.904552       514.4190 
 402   0.0000      18.913309       514.6573 
 403   0.0000      19.623056       533.9705 
 404   0.0000      19.625916       534.0483 
 405   0.0000      19.655625       534.8567 
 406   0.0000      19.686656       535.7011 
 407   0.0000      20.153569       548.4065 
 408   0.0000      20.153739       548.4111 
 409   0.0000      20.302983       552.4723 
 410   0.0000      20.310053       552.6646 
 411   0.0000      20.338008       553.4253 
 412   0.0000      20.338031       553.4259 
 413   0.0000      20.559359       559.4486 
 414   0.0000      20.825545       566.6919 
 415   0.0000      20.908512       568.9495 
 416   0.0000      20.975856       570.7821 
 417   0.0000      21.013108       571.7957 
 418   0.0000      21.420426       582.8794 
 419   0.0000      22.812536       620.7607 
 420   0.0000      22.859355       622.0347 
 421   0.0000      22.946122       624.3957 
 422   0.0000      23.088644       628.2739 
 423   0.0000      23.214703       631.7042 
 424   0.0000      23.454838       638.2386 
 425   0.0000      23.582939       641.7244 
 426   0.0000      23.653536       643.6454 
 427   0.0000      23.842978       648.8004 
 428   0.0000      24.148740       657.1206 
 429   0.0000      24.197616       658.4506 
 430   0.0000      26.545655       722.3440 
 431   0.0000      27.072494       736.6800 
 432   0.0000      28.717734       781.4493 
 433   0.0000      30.382983       826.7630 
 434   0.0000      30.392090       827.0108 
 435   0.0000      30.493825       829.7792 
 436   0.0000      31.055986       845.0763 
 437   0.0000      31.119968       846.8174 
 438   0.0000      31.886705       867.6814 
 439   0.0000      32.441945       882.7902 
 440   0.0000      33.996799       925.0999 
 441   0.0000      34.438017       937.1061 
 442   0.0000      41.135584      1119.3561 
 443   0.0000      41.201285      1121.1440 
 444   0.0000      41.914004      1140.5380 
 445   0.0000      41.984478      1142.4557 
 446   0.0000      42.542327      1157.6356 
 447   0.0000      45.537271      1239.1321 
 448   0.0000      66.486815      1809.1982 
 449   0.0000      66.620628      1812.8394 
 450   0.0000      66.784140      1817.2888 
 451   0.0000      67.015945      1823.5966 
 452   0.0000      68.579735      1866.1495 
 453   0.0000      90.895876      2473.4025 
 454   0.0000      90.999131      2476.2123 
 455   0.0000      91.123895      2479.6073 
 456   0.0000      91.165290      2480.7337 
 457   0.0000      91.313003      2484.7531 
 458   0.0000      91.322846      2485.0210 
 459   0.0000      91.770207      2497.1943 
 460   0.0000      91.814883      2498.4100 
 461   0.0000      93.032633      2531.5466 
 462   0.0000      93.335988      2539.8014 
 463   0.0000      95.275201      2592.5700 
 464   0.0000     143.301824      3899.4409 
 465   0.0000     203.114090      5527.0154 

                 SPIN DOWN ORBITALS
  NO   OCC          E(Eh)            E(eV) 
   0   1.0000     -24.222411      -659.1253 
   1   1.0000     -18.849384      -512.9178 
   2   1.0000      -1.073415       -29.2091 
   3   1.0000      -0.922250       -25.0957 
   4   1.0000      -0.478790       -13.0285 
   5   1.0000      -0.442422       -12.0389 
   6   1.0000      -0.329668        -8.9707 
   7   1.0000      -0.329012        -8.9529 
   8   1.0000      -0.317859        -8.6494 
   9   0.0000      -0.279459        -7.6045 
  10   0.0000      -0.042804        -1.1648 
  11   0.0000       0.010361         0.2819 
  12   0.0000       0.020313         0.5527 
  13   0.0000       0.025228         0.6865 
  14   0.0000       0.032673         0.8891 
  15   0.0000       0.050124         1.3639 
  16   0.0000       0.057571         1.5666 
  17   0.0000       0.062071         1.6890 
  18   0.0000       0.064517         1.7556 
  19   0.0000       0.080744         2.1972 
  20   0.0000       0.083875         2.2823 
  21   0.0000       0.097145         2.6434 
  22   0.0000       0.109622         2.9830 
  23   0.0000       0.116226         3.1627 
  24   0.0000       0.118226         3.2171 
  25   0.0000       0.128858         3.5064 
  26   0.0000       0.141520         3.8510 
  27   0.0000       0.142464         3.8766 
  28   0.0000       0.150897         4.1061 
  29   0.0000       0.158770         4.3204 
  30   0.0000       0.166688         4.5358 
  31   0.0000       0.167284         4.5520 
  32   0.0000       0.191335         5.2065 
  33   0.0000       0.195070         5.3081 
  34   0.0000       0.206796         5.6272 
  35   0.0000       0.211630         5.7588 
  36   0.0000       0.218369         5.9421 
  37   0.0000       0.223566         6.0835 
  38   0.0000       0.227746         6.1973 
  39   0.0000       0.228261         6.2113 
  40   0.0000       0.233442         6.3523 
  41   0.0000       0.248590         6.7645 
  42   0.0000       0.249454         6.7880 
  43   0.0000       0.258157         7.0248 
  44   0.0000       0.269189         7.3250 
  45   0.0000       0.272231         7.4078 
  46   0.0000       0.287228         7.8159 
  47   0.0000       0.295590         8.0434 
  48   0.0000       0.311819         8.4850 
  49   0.0000       0.317234         8.6324 
  50   0.0000       0.317375         8.6362 
  51   0.0000       0.332981         9.0609 
  52   0.0000       0.344510         9.3746 
  53   0.0000       0.361566         9.8387 
  54   0.0000       0.367967        10.0129 
  55   0.0000       0.369385        10.0515 
  56   0.0000       0.371010        10.0957 
  57   0.0000       0.379118        10.3163 
  58   0.0000       0.385782        10.4977 
  59   0.0000       0.391296        10.6477 
  60   0.0000       0.398656        10.8480 
  61   0.0000       0.417792        11.3687 
  62   0.0000       0.418200        11.3798 
  63   0.0000       0.428954        11.6724 
  64   0.0000       0.429656        11.6915 
  65   0.0000       0.446201        12.1417 
  66   0.0000       0.452918        12.3245 
  67   0.0000       0.458981        12.4895 
  68   0.0000       0.467866        12.7313 
  69   0.0000       0.479036        13.0352 
  70   0.0000       0.488194        13.2844 
  71   0.0000       0.492867        13.4116 
  72   0.0000       0.493896        13.4396 
  73   0.0000       0.501594        13.6491 
  74   0.0000       0.502053        13.6615 
  75   0.0000       0.507954        13.8221 
  76   0.0000       0.517887        14.0924 
  77   0.0000       0.521733        14.1971 
  78   0.0000       0.532730        14.4963 
  79   0.0000       0.538443        14.6518 
  80   0.0000       0.541118        14.7246 
  81   0.0000       0.558346        15.1934 
  82   0.0000       0.566815        15.4238 
  83   0.0000       0.574449        15.6315 
  84   0.0000       0.581700        15.8289 
  85   0.0000       0.586548        15.9608 
  86   0.0000       0.594513        16.1775 
  87   0.0000       0.610535        16.6135 
  88   0.0000       0.614439        16.7197 
  89   0.0000       0.622872        16.9492 
  90   0.0000       0.634809        17.2740 
  91   0.0000       0.639381        17.3985 
  92   0.0000       0.653391        17.7797 
  93   0.0000       0.660430        17.9712 
  94   0.0000       0.683590        18.6014 
  95   0.0000       0.685997        18.6669 
  96   0.0000       0.718529        19.5522 
  97   0.0000       0.721743        19.6396 
  98   0.0000       0.729129        19.8406 
  99   0.0000       0.734582        19.9890 
 100   0.0000       0.740203        20.1419 
 101   0.0000       0.745208        20.2781 
 102   0.0000       0.753932        20.5155 
 103   0.0000       0.763851        20.7854 
 104   0.0000       0.766047        20.8452 
 105   0.0000       0.768146        20.9023 
 106   0.0000       0.782701        21.2984 
 107   0.0000       0.791344        21.5336 
 108   0.0000       0.796096        21.6629 
 109   0.0000       0.809589        22.0300 
 110   0.0000       0.817042        22.2329 
 111   0.0000       0.841548        22.8997 
 112   0.0000       0.854552        23.2536 
 113   0.0000       0.861124        23.4324 
 114   0.0000       0.863503        23.4971 
 115   0.0000       0.877736        23.8844 
 116   0.0000       0.886888        24.1334 
 117   0.0000       0.910868        24.7860 
 118   0.0000       0.918321        24.9888 
 119   0.0000       0.922232        25.0952 
 120   0.0000       0.946055        25.7435 
 121   0.0000       0.947934        25.7946 
 122   0.0000       0.954737        25.9797 
 123   0.0000       0.968649        26.3583 
 124   0.0000       0.978729        26.6326 
 125   0.0000       0.981408        26.7055 
 126   0.0000       0.987400        26.8685 
 127   0.0000       1.003453        27.3053 
 128   0.0000       1.004205        27.3258 
 129   0.0000       1.022064        27.8118 
 130   0.0000       1.030480        28.0408 
 131   0.0000       1.041624        28.3440 
 132   0.0000       1.045530        28.4503 
 133   0.0000       1.048393        28.5282 
 134   0.0000       1.056676        28.7536 
 135   0.0000       1.066168        29.0119 
 136   0.0000       1.075268        29.2595 
 137   0.0000       1.081079        29.4177 
 138   0.0000       1.087386        29.5893 
 139   0.0000       1.105971        30.0950 
 140   0.0000       1.107333        30.1321 
 141   0.0000       1.129514        30.7356 
 142   0.0000       1.143322        31.1114 
 143   0.0000       1.168547        31.7978 
 144   0.0000       1.181905        32.1613 
 145   0.0000       1.186512        32.2866 
 146   0.0000       1.193721        32.4828 
 147   0.0000       1.204205        32.7681 
 148   0.0000       1.205279        32.7973 
 149   0.0000       1.218771        33.1644 
 150   0.0000       1.219066        33.1725 
 151   0.0000       1.239517        33.7290 
 152   0.0000       1.264253        34.4021 
 153   0.0000       1.292421        35.1686 
 154   0.0000       1.330526        36.2054 
 155   0.0000       1.330602        36.2075 
 156   0.0000       1.346807        36.6485 
 157   0.0000       1.353947        36.8428 
 158   0.0000       1.356155        36.9028 
 159   0.0000       1.371992        37.3338 
 160   0.0000       1.389214        37.8024 
 161   0.0000       1.390870        37.8475 
 162   0.0000       1.417347        38.5680 
 163   0.0000       1.437904        39.1274 
 164   0.0000       1.462946        39.8088 
 165   0.0000       1.466379        39.9022 
 166   0.0000       1.486659        40.4540 
 167   0.0000       1.496121        40.7115 
 168   0.0000       1.514360        41.2078 
 169   0.0000       1.550051        42.1790 
 170   0.0000       1.579723        42.9864 
 171   0.0000       1.586837        43.1800 
 172   0.0000       1.588252        43.2185 
 173   0.0000       1.635453        44.5029 
 174   0.0000       1.636221        44.5238 
 175   0.0000       1.655313        45.0434 
 176   0.0000       1.694294        46.1041 
 177   0.0000       1.741487        47.3883 
 178   0.0000       1.751945        47.6729 
 179   0.0000       1.764963        48.0271 
 180   0.0000       1.798334        48.9352 
 181   0.0000       1.815127        49.3921 
 182   0.0000       1.857505        50.5453 
 183   0.0000       1.921293        52.2810 
 184   0.0000       1.922699        52.3193 
 185   0.0000       1.931326        52.5541 
 186   0.0000       1.996103        54.3167 
 187   0.0000       2.029928        55.2371 
 188   0.0000       2.107685        57.3530 
 189   0.0000       2.146114        58.3987 
 190   0.0000       2.176951        59.2379 
 191   0.0000       2.225775        60.5664 
 192   0.0000       2.258801        61.4651 
 193   0.0000       2.286601        62.2216 
 194   0.0000       2.309061        62.8327 
 195   0.0000       2.317370        63.0588 
 196   0.0000       2.389538        65.0226 
 197   0.0000       2.390864        65.0587 
 198   0.0000       2.401564        65.3499 
 199   0.0000       2.404082        65.4184 
 200   0.0000       2.422423        65.9175 
 201   0.0000       2.429840        66.1193 
 202   0.0000       2.487730        67.6946 
 203   0.0000       2.524145        68.6855 
 204   0.0000       2.586635        70.3859 
 205   0.0000       2.664650        72.5088 
 206   0.0000       2.669860        72.6506 
 207   0.0000       2.788839        75.8882 
 208   0.0000       2.833325        77.0987 
 209   0.0000       2.849938        77.5508 
 210   0.0000       2.885000        78.5048 
 211   0.0000       2.916527        79.3627 
 212   0.0000       2.937568        79.9353 
 213   0.0000       3.005281        81.7779 
 214   0.0000       3.168344        86.2150 
 215   0.0000       3.255107        88.5760 
 216   0.0000       3.328255        90.5664 
 217   0.0000       3.359241        91.4096 
 218   0.0000       3.394317        92.3641 
 219   0.0000       3.408471        92.7492 
 220   0.0000       3.434413        93.4551 
 221   0.0000       3.445165        93.7477 
 222   0.0000       3.509217        95.4907 
 223   0.0000       3.528126        96.0052 
 224   0.0000       3.565305        97.0169 
 225   0.0000       3.593650        97.7882 
 226   0.0000       3.596941        97.8777 
 227   0.0000       3.661807        99.6428 
 228   0.0000       3.719158       101.2034 
 229   0.0000       3.728702       101.4631 
 230   0.0000       3.752138       102.1009 
 231   0.0000       3.886816       105.7656 
 232   0.0000       3.929789       106.9350 
 233   0.0000       3.940639       107.2303 
 234   0.0000       3.945749       107.3693 
 235   0.0000       3.971126       108.0598 
 236   0.0000       4.073782       110.8533 
 237   0.0000       4.129881       112.3798 
 238   0.0000       4.161849       113.2497 
 239   0.0000       4.250131       115.6519 
 240   0.0000       4.258463       115.8787 
 241   0.0000       4.276154       116.3601 
 242   0.0000       4.345052       118.2349 
 243   0.0000       4.477674       121.8437 
 244   0.0000       4.525922       123.1566 
 245   0.0000       4.577162       124.5509 
 246   0.0000       4.590620       124.9171 
 247   0.0000       4.656407       126.7073 
 248   0.0000       4.743818       129.0859 
 249   0.0000       4.908142       133.5573 
 250   0.0000       4.947936       134.6402 
 251   0.0000       5.053025       137.4998 
 252   0.0000       5.217795       141.9834 
 253   0.0000       5.247965       142.8044 
 254   0.0000       5.275034       143.5410 
 255   0.0000       5.318534       144.7247 
 256   0.0000       5.417666       147.4222 
 257   0.0000       5.446918       148.2182 
 258   0.0000       5.454577       148.4266 
 259   0.0000       5.518950       150.1783 
 260   0.0000       5.556424       151.1980 
 261   0.0000       5.603259       152.4724 
 262   0.0000       5.629410       153.1840 
 263   0.0000       5.634158       153.3132 
 264   0.0000       5.744803       156.3240 
 265   0.0000       5.804499       157.9484 
 266   0.0000       6.020905       163.8371 
 267   0.0000       6.043644       164.4559 
 268   0.0000       6.105053       166.1269 
 269   0.0000       6.160537       167.6367 
 270   0.0000       6.202414       168.7763 
 271   0.0000       6.202716       168.7845 
 272   0.0000       6.211747       169.0302 
 273   0.0000       6.223988       169.3633 
 274   0.0000       6.313910       171.8102 
 275   0.0000       6.352332       172.8557 
 276   0.0000       6.522217       177.4785 
 277   0.0000       6.551660       178.2797 
 278   0.0000       6.665039       181.3649 
 279   0.0000       6.666446       181.4032 
 280   0.0000       6.872064       186.9984 
 281   0.0000       7.043581       191.6656 
 282   0.0000       7.153279       194.6506 
 283   0.0000       7.156347       194.7341 
 284   0.0000       7.159810       194.8283 
 285   0.0000       7.161683       194.8793 
 286   0.0000       7.314754       199.0446 
 287   0.0000       7.322659       199.2597 
 288   0.0000       7.392184       201.1516 
 289   0.0000       7.393615       201.1905 
 290   0.0000       7.412349       201.7003 
 291   0.0000       7.435730       202.3365 
 292   0.0000       7.443534       202.5489 
 293   0.0000       7.608594       207.0404 
 294   0.0000       8.238259       224.1744 
 295   0.0000       8.300524       225.8687 
 296   0.0000       8.335480       226.8200 
 297   0.0000       8.344957       227.0778 
 298   0.0000       8.348152       227.1648 
 299   0.0000       8.400461       228.5882 
 300   0.0000       8.529747       232.1062 
 301   0.0000       8.767872       238.5859 
 302   0.0000       8.773114       238.7286 
 303   0.0000       8.811815       239.7817 
 304   0.0000       8.866598       241.2724 
 305   0.0000       9.001683       244.9482 
 306   0.0000       9.096085       247.5170 
 307   0.0000       9.122977       248.2488 
 308   0.0000       9.267284       252.1756 
 309   0.0000       9.353400       254.5189 
 310   0.0000       9.482953       258.0443 
 311   0.0000       9.671246       263.1680 
 312   0.0000       9.779509       266.1140 
 313   0.0000      10.006079       272.2793 
 314   0.0000      10.405908       283.1592 
 315   0.0000      10.498689       285.6839 
 316   0.0000      10.652671       289.8739 
 317   0.0000      10.671626       290.3897 
 318   0.0000      10.779142       293.3154 
 319   0.0000      10.938051       297.6395 
 320   0.0000      11.207121       304.9613 
 321   0.0000      11.292368       307.2810 
 322   0.0000      11.490927       312.6840 
 323   0.0000      11.650129       317.0161 
 324   0.0000      11.688933       318.0720 
 325   0.0000      11.740572       319.4772 
 326   0.0000      11.773901       320.3841 
 327   0.0000      11.824681       321.7659 
 328   0.0000      11.926868       324.5466 
 329   0.0000      11.976376       325.8938 
 330   0.0000      11.977985       325.9376 
 331   0.0000      12.030202       327.3584 
 332   0.0000      12.039966       327.6241 
 333   0.0000      12.055165       328.0377 
 334   0.0000      12.057592       328.1038 
 335   0.0000      12.086780       328.8980 
 336   0.0000      12.103394       329.3501 
 337   0.0000      12.306696       334.8822 
 338   0.0000      12.327327       335.4436 
 339   0.0000      12.331412       335.5548 
 340   0.0000      12.469238       339.3052 
 341   0.0000      12.536076       341.1240 
 342   0.0000      12.563927       341.8818 
 343   0.0000      12.570700       342.0661 
 344   0.0000      12.630236       343.6862 
 345   0.0000      12.641668       343.9973 
 346   0.0000      12.667401       344.6975 
 347   0.0000      12.667475       344.6995 
 348   0.0000      12.721692       346.1748 
 349   0.0000      12.721700       346.1751 
 350   0.0000      12.775181       347.6304 
 351   0.0000      12.788258       347.9862 
 352   0.0000      12.889420       350.7390 
 353   0.0000      12.910075       351.3010 
 354   0.0000      13.068152       355.6025 
 355   0.0000      13.068590       355.6144 
 356   0.0000      13.105189       356.6103 
 357   0.0000      13.680959       372.2778 
 358   0.0000      13.704155       372.9090 
 359   0.0000      13.716042       373.2325 
 360   0.0000      13.770031       374.7016 
 361   0.0000      13.781377       375.0103 
 362   0.0000      14.013279       381.3207 
 363   0.0000      14.298134       389.0720 
 364   0.0000      14.344953       390.3460 
 365   0.0000      14.498429       394.5223 
 366   0.0000      14.603497       397.3814 
 367   0.0000      14.677535       399.3960 
 368   0.0000      14.700293       400.0153 
 369   0.0000      14.736563       401.0023 
 370   0.0000      15.039595       409.2482 
 371   0.0000      15.040876       409.2830 
 372   0.0000      15.065641       409.9569 
 373   0.0000      15.411834       419.3773 
 374   0.0000      15.522774       422.3961 
 375   0.0000      15.523921       422.4274 
 376   0.0000      15.615340       424.9150 
 377   0.0000      15.732941       428.1151 
 378   0.0000      16.254226       442.3000 
 379   0.0000      16.656973       453.2593 
 380   0.0000      16.661813       453.3910 
 381   0.0000      16.778624       456.5696 
 382   0.0000      16.778724       456.5723 
 383   0.0000      16.997785       462.5332 
 384   0.0000      17.011491       462.9062 
 385   0.0000      17.024812       463.2687 
 386   0.0000      17.043465       463.7763 
 387   0.0000      17.071717       464.5450 
 388   0.0000      17.156585       466.8544 
 389   0.0000      17.229615       468.8417 
 390   0.0000      17.432413       474.3601 
 391   0.0000      17.465159       475.2511 
 392   0.0000      17.602928       479.0000 
 393   0.0000      17.632529       479.8055 
 394   0.0000      17.656917       480.4691 
 395   0.0000      17.723963       482.2935 
 396   0.0000      17.838596       485.4129 
 397   0.0000      17.839358       485.4336 
 398   0.0000      17.903359       487.1752 
 399   0.0000      18.250802       496.6296 
 400   0.0000      18.278533       497.3842 
 401   0.0000      18.906113       514.4615 
 402   0.0000      18.940688       515.4023 
 403   0.0000      19.629450       534.1445 
 404   0.0000      19.631767       534.2075 
 405   0.0000      19.655912       534.8645 
 406   0.0000      19.688299       535.7459 
 407   0.0000      20.154920       548.4433 
 408   0.0000      20.155090       548.4479 
 409   0.0000      20.302798       552.4672 
 410   0.0000      20.309898       552.6604 
 411   0.0000      20.338914       553.4500 
 412   0.0000      20.338969       553.4515 
 413   0.0000      20.579335       559.9922 
 414   0.0000      20.864271       567.7457 
 415   0.0000      20.907580       568.9242 
 416   0.0000      20.976627       570.8030 
 417   0.0000      21.013082       571.7950 
 418   0.0000      21.420475       582.8808 
 419   0.0000      22.826810       621.1491 
 420   0.0000      22.863076       622.1359 
 421   0.0000      23.034113       626.7901 
 422   0.0000      23.132493       629.4671 
 423   0.0000      23.266140       633.1039 
 424   0.0000      23.483779       639.0261 
 425   0.0000      23.644567       643.4014 
 426   0.0000      23.652612       643.6203 
 427   0.0000      23.862578       649.3338 
 428   0.0000      24.148579       657.1162 
 429   0.0000      24.197289       658.4417 
 430   0.0000      26.557400       722.6636 
 431   0.0000      27.101990       737.4826 
 432   0.0000      28.717506       781.4431 
 433   0.0000      30.384466       826.8034 
 434   0.0000      30.395051       827.0914 
 435   0.0000      30.532940       830.8435 
 436   0.0000      31.058039       845.1322 
 437   0.0000      31.120003       846.8183 
 438   0.0000      32.006977       870.9541 
 439   0.0000      32.466027       883.4455 
 440   0.0000      34.028315       925.9575 
 441   0.0000      34.438130       937.1092 
 442   0.0000      41.131673      1119.2497 
 443   0.0000      41.197723      1121.0470 
 444   0.0000      41.915478      1140.5781 
 445   0.0000      41.984742      1142.4629 
 446   0.0000      42.542584      1157.6426 
 447   0.0000      45.537648      1239.1424 
 448   0.0000      66.556796      1811.1025 
 449   0.0000      66.690084      1814.7294 
 450   0.0000      66.858311      1819.3071 
 451   0.0000      67.037516      1824.1835 
 452   0.0000      68.612985      1867.0542 
 453   0.0000      90.885356      2473.1163 
 454   0.0000      90.987366      2475.8921 
 455   0.0000      91.123655      2479.6007 
 456   0.0000      91.164873      2480.7223 
 457   0.0000      91.313909      2484.7778 
 458   0.0000      91.323760      2485.0458 
 459   0.0000      91.770966      2497.2149 
 460   0.0000      91.814828      2498.4085 
 461   0.0000      93.032576      2531.5451 
 462   0.0000      93.325275      2539.5098 
 463   0.0000      95.275029      2592.5653 
 464   0.0000     143.327686      3900.1446 
 465   0.0000     203.114402      5527.0239 

                    ********************************
                    * MULLIKEN POPULATION ANALYSIS *
                    ********************************

--------------------------------------------
MULLIKEN ATOMIC CHARGES AND SPIN POPULATIONS
--------------------------------------------
   0 H :    0.278756   -0.016307
   1 F :   -0.302956    0.015875
   2 O :   -0.194295    0.993605
   3 H :    0.218494    0.006828
Sum of atomic charges         :   -0.0000000
Sum of atomic spin populations:    1.0000000

-----------------------------------------------------
MULLIKEN REDUCED ORBITAL CHARGES AND SPIN POPULATIONS
-----------------------------------------------------
CHARGE
  0 H s       :     0.621319  s :     0.621319
      pz      :     0.027268  p :     0.097575
      px      :     0.033203
      py      :     0.037104
      dz2     :    -0.000802  d :    -0.002303
      dxz     :    -0.001855
      dyz     :     0.000406
      dx2y2   :    -0.000013
      dxy     :    -0.000040
      f0      :     0.001837  f :     0.006274
      f+1     :     0.002252
      f-1     :     0.002326
      f+2     :    -0.000040
      f-2     :    -0.000091
      f+3     :    -0.000011
      f-3     :     0.000001
      g0      :    -0.000432  g :    -0.001621
      g+1     :    -0.000702
      g-1     :    -0.000346
      g+2     :    -0.000032
      g-2     :    -0.000094
      g+3     :    -0.000016
      g-3     :    -0.000000
      g+4     :    -0.000001
      g-4     :     0.000000
  1 F s       :     3.888436  s :     3.888436
      pz      :     1.476958  p :     5.409367
      px      :     1.977317
      py      :     1.955092
      dz2     :     0.001141  d :     0.007023
      dxz     :     0.002685
      dyz     :     0.003228
      dx2y2   :    -0.000022
      dxy     :    -0.000008
      f0      :    -0.000391  f :    -0.000780
      f+1     :    -0.000491
      f-1     :     0.000174
      f+2     :    -0.000029
      f-2     :    -0.000042
      f+3     :    -0.000001
      f-3     :    -0.000000
      g0      :    -0.000207  g :    -0.000840
      g+1     :    -0.000399
      g-1     :    -0.000196
      g+2     :    -0.000017
      g-2     :    -0.000022
      g+3     :     0.000001
      g-3     :    -0.000000
      g+4     :     0.000000
      g-4     :    -0.000000
      h0      :    -0.000051  h :    -0.000250
      h+1     :    -0.000110
      h-1     :    -0.000074
      h+2     :    -0.000006
      h-2     :    -0.000009
      h+3     :     0.000000
      h-3     :    -0.000000
      h+4     :    -0.000000
      h-4     :    -0.000000
      h+5     :    -0.000000
      h-5     :     0.000000
  2 O s       :     3.896849  s :     3.896849
      pz      :     1.904249  p :     4.295685
      px      :     1.406093
      py      :     0.985344
      dz2     :     0.002823  d :     0.004860
      dxz     :    -0.002342
      dyz     :    -0.001291
      dx2y2   :     0.004523
      dxy     :     0.001147
      f0      :    -0.000733  f :    -0.002206
      f+1     :    -0.001742
      f-1     :     0.000208
      f+2     :     0.000004
      f-2     :     0.000028
      f+3     :     0.000061
      f-3     :    -0.000031
      g0      :    -0.000239  g :    -0.000714
      g+1     :    -0.000367
      g-1     :    -0.000149
      g+2     :     0.000027
      g-2     :    -0.000019
      g+3     :     0.000012
      g-3     :    -0.000000
      g+4     :     0.000021
      g-4     :    -0.000000
      h0      :    -0.000027  h :    -0.000178
      h+1     :    -0.000089
      h-1     :    -0.000063
      h+2     :     0.000003
      h-2     :    -0.000002
      h+3     :     0.000001
      h-3     :     0.000000
      h+4     :     0.000001
      h-4     :    -0.000000
      h+5     :    -0.000001
      h-5     :    -0.000000
  3 H s       :     0.693657  s :     0.693657
      pz      :     0.040503  p :     0.082788
      px      :     0.025225
      py      :     0.017061
      dz2     :    -0.001985  d :     0.005626
      dxz     :     0.004105
      dyz     :    -0.000678
      dx2y2   :     0.002184
      dxy     :     0.002000
      f0      :    -0.000490  f :    -0.000559
      f+1     :     0.000503
      f-1     :    -0.000719
      f+2     :     0.000202
      f-2     :    -0.000165
      f+3     :    -0.000056
      f-3     :     0.000166
      g0      :     0.000127  g :    -0.000006
      g+1     :     0.000031
      g-1     :    -0.000085
      g+2     :     0.000104
      g-2     :    -0.000144
      g+3     :    -0.000005
      g-3     :    -0.000020
      g+4     :    -0.000029
      g-4     :     0.000014

SPIN
  0 H s       :    -0.012184  s :    -0.012184
      pz      :    -0.003472  p :    -0.006149
      px      :     0.000417
      py      :    -0.003094
      dz2     :    -0.000116  d :     0.001255
      dxz     :     0.001504
      dyz     :    -0.000187
      dx2y2   :     0.000116
      dxy     :    -0.000062
      f0      :     0.000107  f :     0.001073
      f+1     :    -0.000038
      f-1     :     0.000771
      f+2     :     0.000330
      f-2     :    -0.000111
      f+3     :     0.000014
      f-3     :     0.000001
      g0      :     0.000021  g :    -0.000302
      g+1     :     0.000085
      g-1     :    -0.000313
      g+2     :    -0.000023
      g-2     :    -0.000091
      g+3     :     0.000018
      g-3     :     0.000000
      g+4     :     0.000001
      g-4     :     0.000000
  1 F s       :     0.003316  s :     0.003316
      pz      :    -0.000104  p :     0.012505
      px      :    -0.000299
      py      :     0.012908
      dz2     :     0.000517  d :     0.001109
      dxz     :    -0.000305
      dyz     :     0.000845
      dx2y2   :     0.000071
      dxy     :    -0.000018
      f0      :    -0.000212  f :    -0.000461
      f+1     :    -0.000144
      f-1     :    -0.000074
      f+2     :     0.000010
      f-2     :    -0.000042
      f+3     :     0.000001
      f-3     :    -0.000000
      g0      :    -0.000150  g :    -0.000451
      g+1     :    -0.000070
      g-1     :    -0.000210
      g+2     :     0.000001
      g-2     :    -0.000022
      g+3     :    -0.000000
      g-3     :    -0.000000
      g+4     :    -0.000000
      g-4     :    -0.000000
      h0      :    -0.000036  h :    -0.000144
      h+1     :    -0.000023
      h-1     :    -0.000074
      h+2     :    -0.000000
      h-2     :    -0.000010
      h+3     :    -0.000000
      h-3     :    -0.000000
      h+4     :    -0.000000
      h-4     :    -0.000000
      h+5     :    -0.000000
      h-5     :     0.000000
  2 O s       :     0.010000  s :     0.010000
      pz      :     0.006160  p :     0.981604
      px      :     0.005999
      py      :     0.969446
      dz2     :     0.000531  d :     0.002220
      dxz     :     0.000442
      dyz     :     0.000047
      dx2y2   :     0.000087
      dxy     :     0.001113
      f0      :     0.000266  f :    -0.000226
      f+1     :     0.000050
      f-1     :     0.000010
      f+2     :    -0.000083
      f-2     :     0.000040
      f+3     :    -0.000474
      f-3     :    -0.000035
      g0      :     0.000016  g :    -0.000002
      g+1     :    -0.000006
      g-1     :    -0.000024
      g+2     :     0.000004
      g-2     :     0.000016
      g+3     :    -0.000001
      g-3     :     0.000000
      g+4     :    -0.000007
      g-4     :    -0.000000
      h0      :     0.000005  h :     0.000009
      h+1     :    -0.000003
      h-1     :    -0.000000
      h+2     :    -0.000001
      h-2     :     0.000005
      h+3     :    -0.000001
      h-3     :    -0.000000
      h+4     :     0.000000
      h-4     :    -0.000000
      h+5     :     0.000004
      h-5     :     0.000000
  3 H s       :    -0.005684  s :    -0.005684
      pz      :    -0.003770  p :     0.008919
      px      :    -0.003647
      py      :     0.016336
      dz2     :     0.000388  d :     0.002927
      dxz     :     0.000464
      dyz     :     0.000271
      dx2y2   :    -0.000299
      dxy     :     0.002103
      f0      :    -0.000197  f :     0.000621
      f+1     :     0.000317
      f-1     :     0.000016
      f+2     :     0.000125
      f-2     :     0.000122
      f+3     :    -0.000002
      f-3     :     0.000240
      g0      :     0.000001  g :     0.000044
      g+1     :    -0.000051
      g-1     :     0.000029
      g+2     :     0.000017
      g-2     :    -0.000004
      g+3     :     0.000011
      g-3     :     0.000014
      g+4     :     0.000002
      g-4     :     0.000023


                     *******************************
                     * LOEWDIN POPULATION ANALYSIS *
                     *******************************

-------------------------------------------
LOEWDIN ATOMIC CHARGES AND SPIN POPULATIONS
-------------------------------------------
   0 H :   -1.213056    0.033865
   1 F :    0.977747    0.021079
   2 O :    0.995768    0.783242
   3 H :   -0.760459    0.161814

----------------------------------------------------
LOEWDIN REDUCED ORBITAL CHARGES AND SPIN POPULATIONS
----------------------------------------------------
CHARGE
  0 H s       :     0.569816  s :     0.569816
      pz      :     0.414314  p :     0.718138
      px      :     0.154157
      py      :     0.149666
      dz2     :     0.266321  d :     0.616404
      dxz     :     0.185063
      dyz     :     0.163934
      dx2y2   :     0.000861
      dxy     :     0.000225
      f0      :     0.075097  f :     0.223928
      f+1     :     0.080403
      f-1     :     0.065413
      f+2     :     0.002450
      f-2     :     0.000513
      f+3     :     0.000049
      f-3     :     0.000003
      g0      :     0.034062  g :     0.084770
      g+1     :     0.030841
      g-1     :     0.014676
      g+2     :     0.004180
      g-2     :     0.000740
      g+3     :     0.000251
      g-3     :     0.000015
      g+4     :     0.000003
      g-4     :     0.000000
  1 F s       :     3.227264  s :     3.227264
      pz      :     1.503282  p :     4.617678
      px      :     1.562443
      py      :     1.551953
      dz2     :     0.047136  d :     0.060943
      dxz     :     0.008147
      dyz     :     0.005551
      dx2y2   :     0.000084
      dxy     :     0.000025
      f0      :     0.033175  f :     0.049570
      f+1     :     0.010355
      f-1     :     0.005526
      f+2     :     0.000394
      f-2     :     0.000104
      f+3     :     0.000014
      f-3     :     0.000002
      g0      :     0.023364  g :     0.036651
      g+1     :     0.008178
      g-1     :     0.004780
      g+2     :     0.000246
      g-2     :     0.000078
      g+3     :     0.000005
      g-3     :     0.000000
      g+4     :     0.000000
      g-4     :     0.000000
      h0      :     0.017136  h :     0.030148
      h+1     :     0.007822
      h-1     :     0.004636
      h+2     :     0.000417
      h-2     :     0.000120
      h+3     :     0.000016
      h-3     :     0.000000
      h+4     :     0.000001
      h-4     :     0.000000
      h+5     :     0.000000
      h-5     :     0.000000
  2 O s       :     3.129334  s :     3.129334
      pz      :     1.462771  p :     3.589790
      px      :     1.351173
      py      :     0.775846
      dz2     :     0.042871  d :     0.086683
      dxz     :     0.017080
      dyz     :     0.008160
      dx2y2   :     0.017443
      dxy     :     0.001131
      f0      :     0.033764  f :     0.067570
      f+1     :     0.015717
      f-1     :     0.013376
      f+2     :     0.001645
      f-2     :     0.000206
      f+3     :     0.002337
      f-3     :     0.000525
      g0      :     0.032573  g :     0.070092
      g+1     :     0.018815
      g-1     :     0.016985
      g+2     :     0.000608
      g-2     :     0.000436
      g+3     :     0.000225
      g-3     :     0.000038
      g+4     :     0.000303
      g-4     :     0.000110
      h0      :     0.025744  h :     0.060762
      h+1     :     0.016894
      h-1     :     0.016360
      h+2     :     0.000675
      h-2     :     0.000697
      h+3     :     0.000090
      h-3     :     0.000019
      h+4     :     0.000088
      h-4     :     0.000025
      h+5     :     0.000118
      h-5     :     0.000053
  3 H s       :     0.642346  s :     0.642346
      pz      :     0.185360  p :     0.552462
      px      :     0.290017
      py      :     0.077085
      dz2     :     0.067150  d :     0.391855
      dxz     :     0.138528
      dyz     :     0.008710
      dx2y2   :     0.106901
      dxy     :     0.070566
      f0      :     0.021843  f :     0.129852
      f+1     :     0.037113
      f-1     :     0.005591
      f+2     :     0.024054
      f-2     :     0.006194
      f+3     :     0.015066
      f-3     :     0.019991
      g0      :     0.009877  g :     0.043943
      g+1     :     0.014240
      g-1     :     0.004540
      g+2     :     0.006728
      g-2     :     0.003435
      g+3     :     0.001783
      g-3     :     0.000899
      g+4     :     0.001370
      g-4     :     0.001071

SPIN
  0 H s       :    -0.001945  s :    -0.001945
      pz      :    -0.003368  p :    -0.002050
      px      :    -0.000429
      py      :     0.001748
      dz2     :    -0.000885  d :     0.016865
      dxz     :    -0.000675
      dyz     :     0.018232
      dx2y2   :    -0.000026
      dxy     :     0.000220
      f0      :    -0.000617  f :     0.008886
      f+1     :    -0.000441
      f-1     :     0.009520
      f+2     :    -0.000061
      f-2     :     0.000487
      f+3     :    -0.000005
      f-3     :     0.000003
      g0      :    -0.000187  g :     0.012109
      g+1     :    -0.000200
      g-1     :     0.011851
      g+2     :    -0.000078
      g-2     :     0.000735
      g+3     :    -0.000026
      g-3     :     0.000015
      g+4     :    -0.000000
      g-4     :     0.000000
  1 F s       :    -0.000411  s :    -0.000411
      pz      :    -0.001824  p :     0.008153
      px      :    -0.000016
      py      :     0.009992
      dz2     :    -0.000999  d :     0.000906
      dxz     :    -0.000174
      dyz     :     0.002058
      dx2y2   :    -0.000003
      dxy     :     0.000023
      f0      :    -0.000454  f :     0.004145
      f+1     :    -0.000175
      f-1     :     0.004680
      f+2     :    -0.000010
      f-2     :     0.000104
      f+3     :    -0.000001
      f-3     :     0.000002
      g0      :    -0.000091  g :     0.003820
      g+1     :    -0.000057
      g-1     :     0.003899
      g+2     :    -0.000005
      g-2     :     0.000075
      g+3     :    -0.000001
      g-3     :     0.000000
      g+4     :     0.000000
      g-4     :     0.000000
      h0      :     0.000060  h :     0.004466
      h+1     :     0.000019
      h-1     :     0.004276
      h+2     :    -0.000005
      h-2     :     0.000119
      h+3     :    -0.000002
      h-3     :     0.000000
      h+4     :    -0.000000
      h-4     :     0.000000
      h+5     :     0.000000
      h-5     :     0.000000
  2 O s       :     0.007292  s :     0.007292
      pz      :     0.008304  p :     0.774431
      px      :     0.009900
      py      :     0.756227
      dz2     :     0.000052  d :     0.000699
      dxz     :    -0.000292
      dyz     :     0.000244
      dx2y2   :    -0.000385
      dxy     :     0.001080
      f0      :     0.000021  f :     0.000281
      f+1     :     0.000017
      f-1     :     0.000147
      f+2     :     0.000026
      f-2     :     0.000064
      f+3     :    -0.000517
      f-3     :     0.000522
      g0      :    -0.000038  g :     0.000266
      g+1     :    -0.000008
      g-1     :     0.000193
      g+2     :     0.000000
      g-2     :     0.000001
      g+3     :    -0.000007
      g-3     :     0.000038
      g+4     :    -0.000022
      g-4     :     0.000108
      h0      :    -0.000024  h :     0.000273
      h+1     :    -0.000003
      h-1     :     0.000188
      h+2     :    -0.000001
      h-2     :     0.000035
      h+3     :    -0.000001
      h-3     :     0.000006
      h+4     :     0.000000
      h-4     :     0.000021
      h+5     :    -0.000000
      h-5     :     0.000051
  3 H s       :    -0.013380  s :    -0.013380
      pz      :    -0.003236  p :     0.071875
      px      :     0.001499
      py      :     0.073612
      dz2     :     0.001157  d :     0.076625
      dxz     :     0.001178
      dyz     :     0.005230
      dx2y2   :     0.000727
      dxy     :     0.068334
      f0      :     0.000383  f :     0.025157
      f+1     :     0.000562
      f-1     :     0.000711
      f+2     :     0.000159
      f-2     :     0.004109
      f+3     :    -0.000180
      f-3     :     0.019414
      g0      :     0.000013  g :     0.001537
      g+1     :     0.000023
      g-1     :     0.000186
      g+2     :    -0.000002
      g-2     :     0.000150
      g+3     :    -0.000033
      g-3     :     0.000289
      g+4     :    -0.000076
      g-4     :     0.000988


                      *****************************
                      * MAYER POPULATION ANALYSIS *
                      *****************************

  NA   - Mulliken gross atomic population
  ZA   - Total nuclear charge
  QA   - Mulliken gross atomic charge
  VA   - Mayer's total valence
  BVA  - Mayer's bonded valence
  FA   - Mayer's free valence

  ATOM       NA         ZA         QA         VA         BVA        FA
  0 H      0.7212     1.0000     0.2788     1.0383     1.0380     0.0002
  1 F      9.3030     9.0000    -0.3030     0.7916     0.7914     0.0002
  2 O      8.1943     8.0000    -0.1943     1.9919     1.0455     0.9464
  3 H      0.7815     1.0000     0.2185     1.0038     1.0039    -0.0001

  Mayer bond orders larger than 0.1
B(  0-H ,  1-F ) :   0.9139 B(  0-H ,  2-O ) :   0.1255 B(  1-F ,  2-O ) :  -0.1038 
B(  2-O ,  3-H ) :   1.0239 

-------
TIMINGS
-------

Total SCF time: 0 days 0 hours 25 min 0 sec 

Total time                  ....    1500.273 sec
Sum of individual times     ....    1498.878 sec  ( 99.9%)

Fock matrix formation       ....    1492.149 sec  ( 99.5%)
  XC integration            ....      25.533 sec  (  1.7% of F)
    Basis function eval.    ....       1.540 sec  (  6.0% of XC)
    Density eval.           ....       5.260 sec  ( 20.6% of XC)
    XC-Functional eval.     ....       0.204 sec  (  0.8% of XC)
    XC-Potential eval.      ....      17.699 sec  ( 69.3% of XC)
Diagonalization             ....       3.159 sec  (  0.2%)
Density matrix formation    ....       0.055 sec  (  0.0%)
Population analysis         ....       0.176 sec  (  0.0%)
Initial guess               ....       0.963 sec  (  0.1%)
Orbital Transformation      ....       0.000 sec  (  0.0%)
Orbital Orthonormalization  ....       0.000 sec  (  0.0%)
DIIS solution               ....       1.918 sec  (  0.1%)
Grid generation             ....       0.458 sec  (  0.0%)

-------------------------   --------------------
FINAL SINGLE POINT ENERGY      -176.103611560586
-------------------------   --------------------


                            ***************************************
                            *     ORCA property calculations      *
                            ***************************************

                                    ---------------------
                                    Active property flags
                                    ---------------------
   (+) Dipole Moment


------------------------------------------------------------------------------
                       ORCA ELECTRIC PROPERTIES CALCULATION
------------------------------------------------------------------------------

Dipole Moment Calculation                       ... on
Quadrupole Moment Calculation                   ... off
Polarizability Calculation                      ... off
GBWName                                         ... fh-oh_pbe_+0001_y.gbw
Electron density file                           ... fh-oh_pbe_+0001_y.scfp.tmp
The origin for moment calculation is the CENTER OF MASS  = ( 0.194920,  0.000000 -0.679422)

-------------
DIPOLE MOMENT
-------------
                                X             Y             Z
Electronic contribution:     -0.29347       0.01220       1.36765
Nuclear contribution   :      0.93855       0.00000      -2.47969
                        -----------------------------------------
Total Dipole Moment    :      0.64507       0.01220      -1.11204
                        -----------------------------------------
Magnitude (a.u.)       :      1.28565
Magnitude (Debye)      :      3.26787



--------------------
Rotational spectrum 
--------------------
 
Rotational constants in cm-1:    21.356998     0.246472     0.243660 
Rotational constants in MHz : 640266.678212  7389.040107  7304.739279 

 Dipole components along the rotational axes: 
x,y,z [a.u.] :     1.163506     0.546813    -0.012202 
x,y,z [Debye]:     2.957397     1.389888    -0.031016 

 

Timings for individual modules:

Sum of individual times         ...     1519.236 sec (=  25.321 min)
GTO integral calculation        ...       10.826 sec (=   0.180 min)   0.7 %
SCF iterations                  ...     1508.410 sec (=  25.140 min)  99.3 %
                             ****ORCA TERMINATED NORMALLY****
TOTAL RUN TIME: 0 days 0 hours 25 minutes 26 seconds 243 msec
