
                                 *****************
                                 * O   R   C   A *
                                 *****************

           --- An Ab Initio, DFT and Semiempirical electronic structure package ---

                  #######################################################
                  #                        -***-                        #
                  #          Department of theory and spectroscopy      #
                  #               Directorship: Frank Neese             #
                  #        Max Planck Institute fuer Kohlenforschung    #
                  #                Kaiser Wilhelm Platz 1               #
                  #                 D-45470 Muelheim/Ruhr               #
                  #                      Germany                        #
                  #                                                     #
                  #                  All rights reserved                #
                  #                        -***-                        #
                  #######################################################


                         Program Version 4.1.2  - RELEASE  -


 With contributions from (in alphabetic order):
   Daniel Aravena         : Magnetic Properties
   Michael Atanasov       : Ab Initio Ligand Field Theory
   Alexander A. Auer      : GIAO ZORA
   Ute Becker             : Parallelization
   Giovanni Bistoni       : ED, Open-shell LED
   Martin Brehm           : Molecular dynamics
   Dmytro Bykov           : SCF Hessian
   Vijay G. Chilkuri      : MRCI spin determinant printing
   Dipayan Datta          : RHF DLPNO-CCSD density
   Achintya Kumar Dutta   : EOM-CC, STEOM-CC
   Dmitry Ganyushin       : Spin-Orbit,Spin-Spin,Magnetic field MRCI
   Miquel Garcia          : C-PCM Hessian
   Yang Guo               : DLPNO-NEVPT2, CIM, IAO-localization
   Andreas Hansen         : Spin unrestricted coupled pair/coupled cluster methods
   Benjamin Helmich-Paris : CASSCF linear response (MC-RPA)
   Lee Huntington         : MR-EOM, pCC
   Robert Izsak           : Overlap fitted RIJCOSX, COSX-SCS-MP3, EOM
   Christian Kollmar      : KDIIS, OOCD, Brueckner-CCSD(T), CCSD density
   Simone Kossmann        : Meta GGA functionals, TD-DFT gradient, OOMP2, MP2 Hessian
   Martin Krupicka        : AUTO-CI
   Lucas Lang             : DCDCAS
   Dagmar Lenk            : GEPOL surface, SMD
   Dimitrios Liakos       : Extrapolation schemes; parallel MDCI
   Dimitrios Manganas     : ROCIS; embedding schemes
   Dimitrios Pantazis     : SARC Basis sets
   Taras Petrenko         : DFT Hessian,TD-DFT gradient, ASA, ECA, R-Raman, ABS, FL, XAS/XES, NRVS
   Peter Pinski           : DLPNO-MP2, DLPNO-MP2 Gradient
   Christoph Reimann      : Effective Core Potentials
   Marius Retegan         : Local ZFS, SOC
   Christoph Riplinger    : Optimizer, TS searches, QM/MM, DLPNO-CCSD(T), (RO)-DLPNO pert. Triples
   Tobias Risthaus        : Range-separated hybrids, TD-DFT gradient, RPA, STAB
   Michael Roemelt        : Restricted open shell CIS
   Masaaki Saitow         : Open-shell DLPNO
   Barbara Sandhoefer     : DKH picture change effects
   Avijit Sen             : IP-ROCIS
   Kantharuban Sivalingam : CASSCF convergence, NEVPT2, FIC-MRCI
   Bernardo de Souza      : ESD, SOC TD-DFT
   Georgi Stoychev        : AutoAux, RI-MP2 NMR
   Willem Van den Heuvel  : Paramagnetic NMR
   Boris Wezisla          : Elementary symmetry handling
   Frank Wennmohs         : Technical directorship


 We gratefully acknowledge several colleagues who have allowed us to
 interface, adapt or use parts of their codes:
   Stefan Grimme, W. Hujo, H. Kruse,             : VdW corrections, initial TS optimization,
                  C. Bannwarth                     DFT functionals, gCP, sTDA/sTD-DF
   Ed Valeev                                     : LibInt (2-el integral package), F12 methods
   Garnet Chan, S. Sharma, J. Yang, R. Olivares  : DMRG
   Ulf Ekstrom                                   : XCFun DFT Library
   Mihaly Kallay                                 : mrcc  (arbitrary order and MRCC methods)
   Andreas Klamt, Michael Diedenhofen            : otool_cosmo (COSMO solvation model)
   Jiri Pittner, Ondrej Demel                    : Mk-CCSD
   Frank Weinhold                                : gennbo (NPA and NBO analysis)
   Christopher J. Cramer and Donald G. Truhlar   : smd solvation model
   Lars Goerigk                                  : TD-DFT with DH, B97 family of functionals
   V. Asgeirsson, H. Jonsson                     : NEB implementation
   FAccTs GmbH                                   : IRC, NEB, NEB-TS, Multilevel


 Your calculation uses the libint2 library for the computation of 2-el integrals
 For citations please refer to: http://libint.valeyev.net

 This ORCA versions uses:
   CBLAS   interface :  Fast vector & matrix operations
   LAPACKE interface :  Fast linear algebra routines
   SCALAPACK package :  Parallel linear algebra routines


----- Orbital basis set information -----
Your calculation utilizes the basis: aug-pc-4
   H, C-F              : F. Jensen, J. Chem. Phys. 115, 9113 (2001).
                         F. Jensen, J. Chem. Phys. 116, 7372 (2002).
                         F. Jensen, J. Chem. Phys. 117, 9234 (2002).
   Si-Cl               : F. Jensen, T. Helgaker, J. Chem. Phys. 121, 3463 (2004).
   He-B, Ne-Mg, Al, Ar : F. Jensen, J. Phys. Chem. A 111, 11198 (2007).
   K, Ca, Ga-Kr        : F. Jensen, J. Chem. Phys. 136, 094110 (2012).
   Sc-Zn               : F. Jensen, J. Chem. Phys. 138, 014107 (2013).

================================================================================
                                        WARNINGS
                       Please study these warnings very carefully!
================================================================================


INFO   : the flag for use of LIBINT has been found!

================================================================================
                                       INPUT FILE
================================================================================
NAME = fh-oh_pbe_-0001_x.inp
|  1> !uks pbe nori aug-pc-4 grid5 nofinalgrid verytightscf
|  2> 
|  3> %maxcore 6000
|  4> 
|  5> %pal nprocs 4 end
|  6> 
|  7> %scf
|  8> 	efield -0.001, 0.0, 0.0
|  9> 	maxiter 200
| 10> end
| 11> 
| 12> * xyz 0 2
| 13> H 0.000000 0.000000 0.000000
| 14> F 0.000000 0.000000 0.927729
| 15> O 0.169084 0.000000 -1.803099
| 16> H 1.103782 0.000000 -2.068116
| 17> *
| 18> 
| 19>                          ****END OF INPUT****
================================================================================

                       ****************************
                       * Single Point Calculation *
                       ****************************

---------------------------------
CARTESIAN COORDINATES (ANGSTROEM)
---------------------------------
  H      0.000000    0.000000    0.000000
  F      0.000000    0.000000    0.927729
  O      0.169084    0.000000   -1.803099
  H      1.103782    0.000000   -2.068116

----------------------------
CARTESIAN COORDINATES (A.U.)
----------------------------
  NO LB      ZA    FRAG     MASS         X           Y           Z
   0 H     1.0000    0     1.008    0.000000    0.000000    0.000000
   1 F     9.0000    0    18.998    0.000000    0.000000    1.753154
   2 O     8.0000    0    15.999    0.319522    0.000000   -3.407363
   3 H     1.0000    0     1.008    2.085846    0.000000   -3.908173

--------------------------------
INTERNAL COORDINATES (ANGSTROEM)
--------------------------------
 H      0   0   0     0.000000000000     0.00000000     0.00000000
 F      1   0   0     0.927729000000     0.00000000     0.00000000
 O      1   2   0     1.811009498279   174.64280572     0.00000000
 H      3   1   2     0.971542259242   111.18693629     0.00000000

---------------------------
INTERNAL COORDINATES (A.U.)
---------------------------
 H      0   0   0     0.000000000000     0.00000000     0.00000000
 F      1   0   0     1.753153736497     0.00000000     0.00000000
 O      1   2   0     3.422311977678   174.64280572     0.00000000
 H      3   1   2     1.835948797498   111.18693629     0.00000000

---------------------
BASIS SET INFORMATION
---------------------
There are 3 groups of distinct atoms

 Group   1 Type H   : 12s7p4d3f2g contracted to 8s7p4d3f2g pattern {51111111/1111111/1111/111/11}
 Group   2 Type F   : 27s12p7d4f3g2h contracted to 9s8p7d4f3g2h pattern {1191111111/51111111/1111111/1111/111/11}
 Group   3 Type O   : 27s12p7d4f3g2h contracted to 9s8p7d4f3g2h pattern {1191111111/51111111/1111111/1111/111/11}

Atom   0H    basis set group =>   1
Atom   1F    basis set group =>   2
Atom   2O    basis set group =>   3
Atom   3H    basis set group =>   1


           ************************************************************
           *        Program running with 4 parallel MPI-processes     *
           *              working on a common directory               *
           ************************************************************
------------------------------------------------------------------------------
                           ORCA GTO INTEGRAL CALCULATION
------------------------------------------------------------------------------

                         BASIS SET STATISTICS AND STARTUP INFO

 # of primitive gaussian shells          ...  166
 # of primitive gaussian functions       ...  534
 # of contracted shells                  ...  114
 # of contracted basis functions         ...  466
 Highest angular momentum                ...    5
 Maximum contraction depth               ...   11
 Integral package used                   ... LIBINT
 Integral threshhold            Thresh   ...  1.000e-12
 Primitive cut-off              TCut     ...  1.000e-14


------------------------------ INTEGRAL EVALUATION ----------------------------


 * One electron integrals 
 Pre-screening matrix                    ... done
 Shell pair data                         ... done (   0.002 sec)


An Electric Field will be added: -1.000e-03 0.000e+00 0.000e+00 au

  ... done adding electric field perturbation



           ************************************************************
           *        Program running with 4 parallel MPI-processes     *
           *              working on a common directory               *
           ************************************************************
-------------------------------------------------------------------------------
                                 ORCA SCF
-------------------------------------------------------------------------------

------------
SCF SETTINGS
------------
Hamiltonian:
 Density Functional     Method          .... DFT(GTOs)
 Exchange Functional    Exchange        .... PBE
   PBE kappa parameter   XKappa         ....  0.804000
   PBE mue parameter    XMuePBE         ....  0.219520
 Correlation Functional Correlation     .... PBE
   PBE beta parameter  CBetaPBE         ....  0.066725
 LDA part of GGA corr.  LDAOpt          .... PW91-LDA
 Gradients option       PostSCFGGA      .... off
   Density functional embedding theory  .... OFF
   NL short-range parameter             ....  6.400000


General Settings:
 Integral files         IntName         .... fh-oh_pbe_-0001_x
 Hartree-Fock type      HFTyp           .... UHF
 Total Charge           Charge          ....    0
 Multiplicity           Mult            ....    2
 Number of Electrons    NEL             ....   19
 Basis Dimension        Dim             ....  466
 Nuclear Repulsion      ENuc            ....     27.4714926964 Eh

Convergence Acceleration:
 DIIS                   CNVDIIS         .... on
   Start iteration      DIISMaxIt       ....    12
   Startup error        DIISStart       ....  0.200000
   # of expansion vecs  DIISMaxEq       ....     5
   Bias factor          DIISBfac        ....   1.050
   Max. coefficient     DIISMaxC        ....  10.000
 Newton-Raphson         CNVNR           .... off
 SOSCF                  CNVSOSCF        .... off
 Level Shifting         CNVShift        .... on
   Level shift para.    LevelShift      ....    0.2500
   Turn off err/grad.   ShiftErr        ....    0.0010
 Zerner damping         CNVZerner       .... off
 Static damping         CNVDamp         .... on
   Fraction old density DampFac         ....    0.7000
   Max. Damping (<1)    DampMax         ....    0.9800
   Min. Damping (>=0)   DampMin         ....    0.0000
   Turn off err/grad.   DampErr         ....    0.1000
 Fernandez-Rico         CNVRico         .... off

SCF Procedure:
 Maximum # iterations   MaxIter         ....   200
 SCF integral mode      SCFMode         .... Direct
   Integral package                     .... LIBINT
 Reset frequency        DirectResetFreq ....    20
 Integral Threshold     Thresh          ....  1.000e-12 Eh
 Primitive CutOff       TCut            ....  1.000e-14 Eh

Convergence Tolerance:
 Convergence Check Mode ConvCheckMode   .... Total+1el-Energy
 Convergence forced     ConvForced      .... 0
 Energy Change          TolE            ....  1.000e-09 Eh
 1-El. energy change                    ....  1.000e-06 Eh
 DIIS Error             TolErr          ....  1.000e-08


Diagonalization of the overlap matrix:
Smallest eigenvalue                        ... 1.255e-06
Time for diagonalization                   ...    0.048 sec
Threshold for overlap eigenvalues          ... 1.000e-08
Number of eigenvalues below threshold      ... 0
Time for construction of square roots      ...    0.034 sec
Total time needed                          ...    0.083 sec

-------------------
DFT GRID GENERATION
-------------------

General Integration Accuracy     IntAcc      ...  5.010
Radial Grid Type                 RadialGrid  ... Gauss-Chebyshev
Angular Grid (max. acc.)         AngularGrid ... Lebedev-434
Angular grid pruning method      GridPruning ... 3 (G Style)
Weight generation scheme         WeightScheme... Becke
Basis function cutoff            BFCut       ...    1.0000e-12
Integration weight cutoff        WCut        ...    1.0000e-14
Grids for H and He will be reduced by one unit

# of grid points (after initial pruning)     ...  35044 (   0.0 sec)
# of grid points (after weights+screening)   ...  34560 (   0.0 sec)
nearest neighbour list constructed           ...    0.0 sec
Grid point re-assignment to atoms done       ...    0.0 sec
Grid point division into batches done        ...    0.2 sec
Reduced shell lists constructed in    0.3 sec

Total number of grid points                  ...    34560
Total number of batches                      ...      543
Average number of points per batch           ...       63
Average number of grid points per atom       ...     8640
Average number of shells per batch           ...    79.20 (69.48%)
Average number of basis functions per batch  ...   337.18 (72.36%)
Average number of large shells per batch     ...    69.94 (88.31%)
Average number of large basis fcns per batch ...   299.27 (88.76%)
Maximum spatial batch extension              ...  14.02, 13.43, 13.76 au
Average spatial batch extension              ...   0.88,  0.86,  0.72 au

Time for grid setup =    0.371 sec

------------------------------
INITIAL GUESS: MODEL POTENTIAL
------------------------------
Loading Hartree-Fock densities                     ... done
Calculating cut-offs                               ... done
Setting up the integral package                    ... done
Initializing the effective Hamiltonian             ... done
Starting the Coulomb interaction                   ... done (   0.0 sec)
Reading the grid                                   ... done
Mapping shells                                     ... done
Starting the XC term evaluation                    ... done (   0.7 sec)
  promolecular density results
     # of electrons  =     18.999023143
     EX              =    -18.655804200
     EC              =     -0.616543038
     EX+EC           =    -19.272347239
Transforming the Hamiltonian                       ... done (   0.0 sec)
Diagonalizing the Hamiltonian                      ... done (   0.0 sec)
Back transforming the eigenvectors                 ... done (   0.0 sec)
Now organizing SCF variables                       ... done
                      ------------------
                      INITIAL GUESS DONE (   1.2 sec)
                      ------------------
--------------
SCF ITERATIONS
--------------
ITER       Energy         Delta-E        Max-DP      RMS-DP      [F,P]     Damp
               ***  Starting incremental Fock matrix formation  ***
  0   -176.0524037644   0.000000000000 0.00867561  0.00009835  0.2125418 0.7000
  1   -176.0773724687  -0.024968704328 0.00590161  0.00006260  0.0640913 0.7000
                               ***Turning on DIIS***
  2   -176.0848842018  -0.007511733094 0.01093044  0.00009708  0.0158359 0.0000
  3   -176.1009964003  -0.016112198517 0.00252922  0.00003303  0.0351371 0.0000
  4   -176.1028511814  -0.001854781052 0.00105761  0.00001218  0.0093784 0.0000
  5   -176.1029512563  -0.000100074929 0.00044705  0.00000392  0.0035925 0.0000
  6   -176.1029657358  -0.000014479457 0.00024157  0.00000284  0.0003624 0.0000
  7   -176.1029673084  -0.000001572658 0.00004629  0.00000054  0.0003213 0.0000
  8   -176.1029675026  -0.000000194154 0.00001870  0.00000018  0.0000710 0.0000
  9   -176.1029675242  -0.000000021671 0.00000397  0.00000004  0.0000169 0.0000
 10   -176.1029675261  -0.000000001823 0.00000238  0.00000002  0.0000047 0.0000
 11   -176.1029675263  -0.000000000200 0.00000325  0.00000002  0.0000016 0.0000
 12   -176.1029675263  -0.000000000011 0.00000635  0.00000003  0.0000005 0.0000
                 **** Energy Check signals convergence ****

               *****************************************************
               *                     SUCCESS                       *
               *           SCF CONVERGED AFTER  13 CYCLES          *
               *****************************************************


----------------
TOTAL SCF ENERGY
----------------

Total Energy       :         -176.10296753 Eh           -4792.00537 eV

Components:
Nuclear Repulsion  :           27.47149270 Eh             747.53732 eV
Electronic Energy  :         -203.57446022 Eh           -5539.54269 eV
One Electron Energy:         -298.74409750 Eh           -8129.24018 eV
Two Electron Energy:           95.16963728 Eh            2589.69749 eV

Virial components:
Potential Energy   :         -351.72731373 Eh           -9570.98679 eV
Kinetic Energy     :          175.62434621 Eh            4778.98142 eV
Virial Ratio       :            2.00272526


DFT components:
N(Alpha)           :       10.000000982113 electrons
N(Beta)            :        9.000000901401 electrons
N(Total)           :       19.000001883514 electrons
E(X)               :      -18.908428957024 Eh       
E(C)               :       -0.617642255007 Eh       
E(XC)              :      -19.526071212032 Eh       
DFET-embed. en.    :        0.000000000000 Eh       

---------------
SCF CONVERGENCE
---------------

  Last Energy change         ...   -3.9222e-12  Tolerance :   1.0000e-09
  Last MAX-Density change    ...    6.2559e-06  Tolerance :   1.0000e-08
  Last RMS-Density change    ...    5.0403e-08  Tolerance :   1.0000e-09
  Last DIIS Error            ...    9.0889e-08  Tolerance :   1.0000e-08

             **** THE GBW FILE WAS UPDATED (fh-oh_pbe_-0001_x.gbw) ****
             **** DENSITY FILE WAS UPDATED (fh-oh_pbe_-0001_x.scfp.tmp) ****
             **** ENERGY FILE WAS UPDATED (fh-oh_pbe_-0001_x.en.tmp) ****
----------------------
UHF SPIN CONTAMINATION
----------------------

Warning: in a DFT calculation there is little theoretical justification to 
         calculate <S**2> as in Hartree-Fock theory. We will do it anyways
         but you should keep in mind that the values have only limited relevance

Expectation value of <S**2>     :     0.752393
Ideal value S*(S+1) for S=0.5   :     0.750000
Deviation                       :     0.002393

----------------
ORBITAL ENERGIES
----------------
                 SPIN UP ORBITALS
  NO   OCC          E(Eh)            E(eV) 
   0   1.0000     -24.222610      -659.1307 
   1   1.0000     -18.873383      -513.5709 
   2   1.0000      -1.073974       -29.2243 
   3   1.0000      -0.979936       -26.6654 
   4   1.0000      -0.488099       -13.2819 
   5   1.0000      -0.456694       -12.4273 
   6   1.0000      -0.410228       -11.1629 
   7   1.0000      -0.341736        -9.2991 
   8   1.0000      -0.329637        -8.9699 
   9   1.0000      -0.327928        -8.9234 
  10   0.0000      -0.050628        -1.3776 
  11   0.0000       0.009967         0.2712 
  12   0.0000       0.019633         0.5342 
  13   0.0000       0.020388         0.5548 
  14   0.0000       0.025010         0.6806 
  15   0.0000       0.049862         1.3568 
  16   0.0000       0.058389         1.5888 
  17   0.0000       0.062711         1.7064 
  18   0.0000       0.063143         1.7182 
  19   0.0000       0.078824         2.1449 
  20   0.0000       0.079983         2.1765 
  21   0.0000       0.095506         2.5989 
  22   0.0000       0.107694         2.9305 
  23   0.0000       0.112523         3.0619 
  24   0.0000       0.116168         3.1611 
  25   0.0000       0.123697         3.3660 
  26   0.0000       0.135936         3.6990 
  27   0.0000       0.140038         3.8106 
  28   0.0000       0.150112         4.0848 
  29   0.0000       0.158046         4.3007 
  30   0.0000       0.165313         4.4984 
  31   0.0000       0.166451         4.5294 
  32   0.0000       0.187493         5.1019 
  33   0.0000       0.193495         5.2653 
  34   0.0000       0.202908         5.5214 
  35   0.0000       0.207031         5.6336 
  36   0.0000       0.216791         5.8992 
  37   0.0000       0.219804         5.9812 
  38   0.0000       0.221709         6.0330 
  39   0.0000       0.226528         6.1641 
  40   0.0000       0.232451         6.3253 
  41   0.0000       0.246182         6.6990 
  42   0.0000       0.247048         6.7225 
  43   0.0000       0.252990         6.8842 
  44   0.0000       0.267202         7.2709 
  45   0.0000       0.269347         7.3293 
  46   0.0000       0.288796         7.8585 
  47   0.0000       0.293355         7.9826 
  48   0.0000       0.310472         8.4484 
  49   0.0000       0.315453         8.5839 
  50   0.0000       0.316349         8.6083 
  51   0.0000       0.329573         8.9681 
  52   0.0000       0.343346         9.3429 
  53   0.0000       0.359153         9.7730 
  54   0.0000       0.363676         9.8961 
  55   0.0000       0.366207         9.9650 
  56   0.0000       0.368271        10.0212 
  57   0.0000       0.375348        10.2137 
  58   0.0000       0.384641        10.4666 
  59   0.0000       0.388953        10.5839 
  60   0.0000       0.397463        10.8155 
  61   0.0000       0.415455        11.3051 
  62   0.0000       0.415770        11.3137 
  63   0.0000       0.419780        11.4228 
  64   0.0000       0.426873        11.6158 
  65   0.0000       0.443462        12.0672 
  66   0.0000       0.451064        12.2741 
  67   0.0000       0.454500        12.3676 
  68   0.0000       0.462375        12.5819 
  69   0.0000       0.475350        12.9349 
  70   0.0000       0.482017        13.1163 
  71   0.0000       0.485288        13.2053 
  72   0.0000       0.492743        13.4082 
  73   0.0000       0.495501        13.4833 
  74   0.0000       0.500392        13.6163 
  75   0.0000       0.503962        13.7135 
  76   0.0000       0.515976        14.0404 
  77   0.0000       0.519514        14.1367 
  78   0.0000       0.528603        14.3840 
  79   0.0000       0.533162        14.5081 
  80   0.0000       0.537659        14.6304 
  81   0.0000       0.554370        15.0852 
  82   0.0000       0.564311        15.3557 
  83   0.0000       0.572528        15.5793 
  84   0.0000       0.579677        15.7738 
  85   0.0000       0.584795        15.9131 
  86   0.0000       0.590112        16.0578 
  87   0.0000       0.606704        16.5093 
  88   0.0000       0.610483        16.6121 
  89   0.0000       0.618729        16.8365 
  90   0.0000       0.628663        17.1068 
  91   0.0000       0.635163        17.2837 
  92   0.0000       0.651646        17.7322 
  93   0.0000       0.658264        17.9123 
  94   0.0000       0.678168        18.4539 
  95   0.0000       0.680968        18.5301 
  96   0.0000       0.715609        19.4727 
  97   0.0000       0.716874        19.5071 
  98   0.0000       0.728197        19.8153 
  99   0.0000       0.731595        19.9077 
 100   0.0000       0.737527        20.0691 
 101   0.0000       0.743746        20.2384 
 102   0.0000       0.748831        20.3767 
 103   0.0000       0.760964        20.7069 
 104   0.0000       0.761895        20.7322 
 105   0.0000       0.766188        20.8490 
 106   0.0000       0.778449        21.1827 
 107   0.0000       0.784684        21.3523 
 108   0.0000       0.792220        21.5574 
 109   0.0000       0.804761        21.8987 
 110   0.0000       0.812921        22.1207 
 111   0.0000       0.839577        22.8460 
 112   0.0000       0.846060        23.0225 
 113   0.0000       0.856174        23.2977 
 114   0.0000       0.860129        23.4053 
 115   0.0000       0.869375        23.6569 
 116   0.0000       0.880957        23.9721 
 117   0.0000       0.904309        24.6075 
 118   0.0000       0.904463        24.6117 
 119   0.0000       0.914059        24.8728 
 120   0.0000       0.939456        25.5639 
 121   0.0000       0.940507        25.5925 
 122   0.0000       0.951424        25.8896 
 123   0.0000       0.955016        25.9873 
 124   0.0000       0.972426        26.4610 
 125   0.0000       0.975969        26.5575 
 126   0.0000       0.983794        26.7704 
 127   0.0000       0.996089        27.1050 
 128   0.0000       0.997588        27.1457 
 129   0.0000       1.019673        27.7467 
 130   0.0000       1.024047        27.8657 
 131   0.0000       1.036493        28.2044 
 132   0.0000       1.042709        28.3736 
 133   0.0000       1.043716        28.4010 
 134   0.0000       1.051798        28.6209 
 135   0.0000       1.061258        28.8783 
 136   0.0000       1.072449        29.1828 
 137   0.0000       1.078183        29.3389 
 138   0.0000       1.084781        29.5184 
 139   0.0000       1.103840        30.0370 
 140   0.0000       1.103941        30.0398 
 141   0.0000       1.127919        30.6922 
 142   0.0000       1.137119        30.9426 
 143   0.0000       1.161644        31.6099 
 144   0.0000       1.174686        31.9648 
 145   0.0000       1.182543        32.1786 
 146   0.0000       1.191322        32.4175 
 147   0.0000       1.194875        32.5142 
 148   0.0000       1.203931        32.7606 
 149   0.0000       1.217971        33.1427 
 150   0.0000       1.218131        33.1470 
 151   0.0000       1.238399        33.6986 
 152   0.0000       1.257543        34.2195 
 153   0.0000       1.288656        35.0661 
 154   0.0000       1.329912        36.1888 
 155   0.0000       1.329954        36.1899 
 156   0.0000       1.343314        36.5534 
 157   0.0000       1.347771        36.6747 
 158   0.0000       1.353217        36.8229 
 159   0.0000       1.368449        37.2374 
 160   0.0000       1.384401        37.6715 
 161   0.0000       1.385839        37.7106 
 162   0.0000       1.411419        38.4067 
 163   0.0000       1.433856        39.0172 
 164   0.0000       1.460523        39.7429 
 165   0.0000       1.461478        39.7688 
 166   0.0000       1.484222        40.3877 
 167   0.0000       1.492671        40.6176 
 168   0.0000       1.513140        41.1746 
 169   0.0000       1.545187        42.0467 
 170   0.0000       1.575078        42.8600 
 171   0.0000       1.579984        42.9936 
 172   0.0000       1.581995        43.0483 
 173   0.0000       1.621188        44.1148 
 174   0.0000       1.633091        44.4387 
 175   0.0000       1.653813        45.0026 
 176   0.0000       1.692089        46.0441 
 177   0.0000       1.728882        47.0453 
 178   0.0000       1.745153        47.4880 
 179   0.0000       1.759163        47.8692 
 180   0.0000       1.782470        48.5035 
 181   0.0000       1.799855        48.9765 
 182   0.0000       1.849004        50.3140 
 183   0.0000       1.883763        51.2598 
 184   0.0000       1.893753        51.5316 
 185   0.0000       1.928452        52.4758 
 186   0.0000       1.991792        54.1994 
 187   0.0000       2.023591        55.0647 
 188   0.0000       2.073835        56.4319 
 189   0.0000       2.105538        57.2946 
 190   0.0000       2.167469        58.9798 
 191   0.0000       2.200584        59.8809 
 192   0.0000       2.243037        61.0361 
 193   0.0000       2.272605        61.8407 
 194   0.0000       2.304538        62.7097 
 195   0.0000       2.315313        63.0029 
 196   0.0000       2.373903        64.5972 
 197   0.0000       2.375263        64.6342 
 198   0.0000       2.400330        65.3163 
 199   0.0000       2.400872        65.3310 
 200   0.0000       2.419223        65.8304 
 201   0.0000       2.423896        65.9576 
 202   0.0000       2.483963        67.5921 
 203   0.0000       2.516859        68.4872 
 204   0.0000       2.584643        70.3317 
 205   0.0000       2.637166        71.7609 
 206   0.0000       2.662581        72.4525 
 207   0.0000       2.777551        75.5810 
 208   0.0000       2.832090        77.0651 
 209   0.0000       2.846060        77.4452 
 210   0.0000       2.880246        78.3755 
 211   0.0000       2.912695        79.2585 
 212   0.0000       2.932776        79.8049 
 213   0.0000       2.988995        81.3347 
 214   0.0000       3.159730        85.9806 
 215   0.0000       3.249687        88.4285 
 216   0.0000       3.319719        90.3342 
 217   0.0000       3.357981        91.3753 
 218   0.0000       3.389256        92.2263 
 219   0.0000       3.403908        92.6250 
 220   0.0000       3.421251        93.0970 
 221   0.0000       3.444696        93.7350 
 222   0.0000       3.494268        95.0839 
 223   0.0000       3.523737        95.8858 
 224   0.0000       3.561862        96.9232 
 225   0.0000       3.591805        97.7380 
 226   0.0000       3.593273        97.7779 
 227   0.0000       3.653849        99.4263 
 228   0.0000       3.709570       100.9425 
 229   0.0000       3.722071       101.2827 
 230   0.0000       3.747241       101.9676 
 231   0.0000       3.882416       105.6459 
 232   0.0000       3.923359       106.7600 
 233   0.0000       3.936499       107.1176 
 234   0.0000       3.938353       107.1680 
 235   0.0000       3.955261       107.6281 
 236   0.0000       4.045260       110.0771 
 237   0.0000       4.109912       111.8364 
 238   0.0000       4.113523       111.9347 
 239   0.0000       4.224580       114.9567 
 240   0.0000       4.228896       115.0741 
 241   0.0000       4.265785       116.0779 
 242   0.0000       4.308697       117.2456 
 243   0.0000       4.467130       121.5568 
 244   0.0000       4.505367       122.5973 
 245   0.0000       4.528161       123.2175 
 246   0.0000       4.572896       124.4348 
 247   0.0000       4.622159       125.7753 
 248   0.0000       4.734785       128.8400 
 249   0.0000       4.895578       133.2155 
 250   0.0000       4.929692       134.1437 
 251   0.0000       5.025054       136.7387 
 252   0.0000       5.203562       141.5961 
 253   0.0000       5.244426       142.7081 
 254   0.0000       5.271972       143.4576 
 255   0.0000       5.277402       143.6054 
 256   0.0000       5.368063       146.0724 
 257   0.0000       5.417328       147.4130 
 258   0.0000       5.422141       147.5439 
 259   0.0000       5.492110       149.4479 
 260   0.0000       5.548733       150.9887 
 261   0.0000       5.576004       151.7308 
 262   0.0000       5.589587       152.1004 
 263   0.0000       5.615878       152.8158 
 264   0.0000       5.730055       155.9227 
 265   0.0000       5.797730       157.7642 
 266   0.0000       6.001051       163.2969 
 267   0.0000       6.001063       163.2972 
 268   0.0000       6.071497       165.2138 
 269   0.0000       6.130994       166.8328 
 270   0.0000       6.177849       168.1078 
 271   0.0000       6.199058       168.6849 
 272   0.0000       6.201311       168.7463 
 273   0.0000       6.203981       168.8189 
 274   0.0000       6.303388       171.5239 
 275   0.0000       6.346868       172.7071 
 276   0.0000       6.519818       177.4133 
 277   0.0000       6.547682       178.1715 
 278   0.0000       6.641478       180.7238 
 279   0.0000       6.656884       181.1430 
 280   0.0000       6.857049       186.5898 
 281   0.0000       7.014402       190.8716 
 282   0.0000       7.120019       193.7456 
 283   0.0000       7.131760       194.0651 
 284   0.0000       7.159105       194.8091 
 285   0.0000       7.159942       194.8319 
 286   0.0000       7.281048       198.1274 
 287   0.0000       7.316755       199.0990 
 288   0.0000       7.361288       200.3108 
 289   0.0000       7.393023       201.1744 
 290   0.0000       7.410052       201.6378 
 291   0.0000       7.417797       201.8485 
 292   0.0000       7.443172       202.5390 
 293   0.0000       7.599507       206.7931 
 294   0.0000       8.233190       224.0365 
 295   0.0000       8.297066       225.7746 
 296   0.0000       8.328959       226.6425 
 297   0.0000       8.344719       227.0714 
 298   0.0000       8.347657       227.1513 
 299   0.0000       8.399572       228.5640 
 300   0.0000       8.531255       232.1473 
 301   0.0000       8.766221       238.5410 
 302   0.0000       8.771921       238.6961 
 303   0.0000       8.809179       239.7100 
 304   0.0000       8.862452       241.1596 
 305   0.0000       8.999524       244.8895 
 306   0.0000       9.094597       247.4766 
 307   0.0000       9.122945       248.2480 
 308   0.0000       9.198020       250.2909 
 309   0.0000       9.323613       253.7084 
 310   0.0000       9.393796       255.6182 
 311   0.0000       9.600819       261.2516 
 312   0.0000       9.749229       265.2900 
 313   0.0000       9.992300       271.9043 
 314   0.0000      10.346428       281.5406 
 315   0.0000      10.493943       285.5547 
 316   0.0000      10.645030       289.6660 
 317   0.0000      10.665839       290.2322 
 318   0.0000      10.775510       293.2165 
 319   0.0000      10.892597       296.4026 
 320   0.0000      11.077987       301.4474 
 321   0.0000      11.272429       306.7384 
 322   0.0000      11.478349       312.3417 
 323   0.0000      11.629713       316.4606 
 324   0.0000      11.675587       317.7089 
 325   0.0000      11.705315       318.5178 
 326   0.0000      11.744556       319.5856 
 327   0.0000      11.783027       320.6325 
 328   0.0000      11.893528       323.6394 
 329   0.0000      11.908863       324.0566 
 330   0.0000      11.918250       324.3121 
 331   0.0000      11.970671       325.7385 
 332   0.0000      12.008494       326.7677 
 333   0.0000      12.054740       328.0261 
 334   0.0000      12.057245       328.0943 
 335   0.0000      12.061970       328.2229 
 336   0.0000      12.096313       329.1574 
 337   0.0000      12.284690       334.2834 
 338   0.0000      12.304102       334.8116 
 339   0.0000      12.329303       335.4974 
 340   0.0000      12.413523       337.7891 
 341   0.0000      12.506379       340.3159 
 342   0.0000      12.526656       340.8676 
 343   0.0000      12.552834       341.5800 
 344   0.0000      12.622583       343.4779 
 345   0.0000      12.623005       343.4894 
 346   0.0000      12.666782       344.6807 
 347   0.0000      12.666899       344.6838 
 348   0.0000      12.712135       345.9148 
 349   0.0000      12.720883       346.1528 
 350   0.0000      12.720888       346.1530 
 351   0.0000      12.746034       346.8372 
 352   0.0000      12.826166       349.0177 
 353   0.0000      12.831235       349.1557 
 354   0.0000      13.041446       354.8758 
 355   0.0000      13.068180       355.6032 
 356   0.0000      13.068719       355.6179 
 357   0.0000      13.648403       371.3919 
 358   0.0000      13.679233       372.2309 
 359   0.0000      13.701829       372.8457 
 360   0.0000      13.747882       374.0989 
 361   0.0000      13.774423       374.8211 
 362   0.0000      14.002050       381.0151 
 363   0.0000      14.276088       388.4721 
 364   0.0000      14.321204       389.6998 
 365   0.0000      14.495974       394.4555 
 366   0.0000      14.601472       397.3263 
 367   0.0000      14.677398       399.3923 
 368   0.0000      14.699960       400.0062 
 369   0.0000      14.736120       400.9902 
 370   0.0000      15.038365       409.2147 
 371   0.0000      15.039650       409.2497 
 372   0.0000      15.063347       409.8945 
 373   0.0000      15.393616       418.8816 
 374   0.0000      15.522269       422.3824 
 375   0.0000      15.523382       422.4127 
 376   0.0000      15.611587       424.8129 
 377   0.0000      15.731721       428.0819 
 378   0.0000      16.252807       442.2614 
 379   0.0000      16.651415       453.1080 
 380   0.0000      16.658219       453.2932 
 381   0.0000      16.779028       456.5806 
 382   0.0000      16.779132       456.5834 
 383   0.0000      16.916619       460.3246 
 384   0.0000      16.958759       461.4713 
 385   0.0000      16.964869       461.6375 
 386   0.0000      17.014626       462.9915 
 387   0.0000      17.040953       463.7079 
 388   0.0000      17.138029       466.3495 
 389   0.0000      17.143074       466.4867 
 390   0.0000      17.367436       472.5920 
 391   0.0000      17.424463       474.1437 
 392   0.0000      17.579956       478.3749 
 393   0.0000      17.583533       478.4723 
 394   0.0000      17.631784       479.7852 
 395   0.0000      17.662445       480.6196 
 396   0.0000      17.838900       485.4211 
 397   0.0000      17.839569       485.4394 
 398   0.0000      17.853491       485.8182 
 399   0.0000      18.249593       496.5967 
 400   0.0000      18.277910       497.3672 
 401   0.0000      18.904546       514.4188 
 402   0.0000      18.912753       514.6422 
 403   0.0000      19.622043       533.9429 
 404   0.0000      19.625195       534.0287 
 405   0.0000      19.655711       534.8591 
 406   0.0000      19.686454       535.6956 
 407   0.0000      20.153661       548.4090 
 408   0.0000      20.153830       548.4136 
 409   0.0000      20.303072       552.4747 
 410   0.0000      20.310137       552.6669 
 411   0.0000      20.338104       553.4279 
 412   0.0000      20.338126       553.4286 
 413   0.0000      20.558566       559.4270 
 414   0.0000      20.824690       566.6686 
 415   0.0000      20.907876       568.9322 
 416   0.0000      20.975950       570.7846 
 417   0.0000      21.012995       571.7927 
 418   0.0000      21.420518       582.8819 
 419   0.0000      22.812529       620.7605 
 420   0.0000      22.859431       622.0367 
 421   0.0000      22.945891       624.3895 
 422   0.0000      23.088502       628.2701 
 423   0.0000      23.214626       631.7021 
 424   0.0000      23.454170       638.2204 
 425   0.0000      23.582283       641.7065 
 426   0.0000      23.652629       643.6208 
 427   0.0000      23.842591       648.7899 
 428   0.0000      24.148824       657.1229 
 429   0.0000      24.197698       658.4528 
 430   0.0000      26.544982       722.3257 
 431   0.0000      27.071846       736.6624 
 432   0.0000      28.717818       781.4516 
 433   0.0000      30.383066       826.7652 
 434   0.0000      30.392148       827.0124 
 435   0.0000      30.493487       829.7700 
 436   0.0000      31.056065       845.0785 
 437   0.0000      31.120063       846.8200 
 438   0.0000      31.886359       867.6719 
 439   0.0000      32.441579       882.7803 
 440   0.0000      33.996375       925.0884 
 441   0.0000      34.438105       937.1085 
 442   0.0000      41.135205      1119.3458 
 443   0.0000      41.200897      1121.1334 
 444   0.0000      41.914083      1140.5402 
 445   0.0000      41.984581      1142.4585 
 446   0.0000      42.542410      1157.6378 
 447   0.0000      45.537358      1239.1345 
 448   0.0000      66.486438      1809.1880 
 449   0.0000      66.620245      1812.8290 
 450   0.0000      66.783732      1817.2777 
 451   0.0000      67.015542      1823.5856 
 452   0.0000      68.579313      1866.1380 
 453   0.0000      90.895099      2473.3814 
 454   0.0000      90.998368      2476.1915 
 455   0.0000      91.123973      2479.6094 
 456   0.0000      91.165358      2480.7355 
 457   0.0000      91.313083      2484.7553 
 458   0.0000      91.322926      2485.0232 
 459   0.0000      91.770285      2497.1964 
 460   0.0000      91.814971      2498.4124 
 461   0.0000      93.032713      2531.5488 
 462   0.0000      93.335174      2539.7792 
 463   0.0000      95.275281      2592.5722 
 464   0.0000     143.301454      3899.4308 
 465   0.0000     203.114177      5527.0178 

                 SPIN DOWN ORBITALS
  NO   OCC          E(Eh)            E(eV) 
   0   1.0000     -24.222322      -659.1229 
   1   1.0000     -18.849791      -512.9289 
   2   1.0000      -1.073307       -29.2062 
   3   1.0000      -0.922712       -25.1083 
   4   1.0000      -0.478807       -13.0290 
   5   1.0000      -0.442607       -12.0440 
   6   1.0000      -0.329609        -8.9691 
   7   1.0000      -0.328897        -8.9497 
   8   1.0000      -0.318055        -8.6547 
   9   0.0000      -0.279753        -7.6125 
  10   0.0000      -0.045071        -1.2264 
  11   0.0000       0.010625         0.2891 
  12   0.0000       0.021158         0.5757 
  13   0.0000       0.026115         0.7106 
  14   0.0000       0.026414         0.7187 
  15   0.0000       0.050406         1.3716 
  16   0.0000       0.058508         1.5921 
  17   0.0000       0.063199         1.7197 
  18   0.0000       0.064153         1.7457 
  19   0.0000       0.081524         2.2184 
  20   0.0000       0.083189         2.2637 
  21   0.0000       0.096409         2.6234 
  22   0.0000       0.109312         2.9745 
  23   0.0000       0.117467         3.1964 
  24   0.0000       0.118311         3.2194 
  25   0.0000       0.126269         3.4360 
  26   0.0000       0.140836         3.8323 
  27   0.0000       0.141243         3.8434 
  28   0.0000       0.150746         4.1020 
  29   0.0000       0.159639         4.3440 
  30   0.0000       0.166504         4.5308 
  31   0.0000       0.166729         4.5369 
  32   0.0000       0.191306         5.2057 
  33   0.0000       0.194141         5.2829 
  34   0.0000       0.205854         5.6016 
  35   0.0000       0.210708         5.7337 
  36   0.0000       0.217425         5.9164 
  37   0.0000       0.223533         6.0826 
  38   0.0000       0.226344         6.1591 
  39   0.0000       0.227420         6.1884 
  40   0.0000       0.233280         6.3479 
  41   0.0000       0.248918         6.7734 
  42   0.0000       0.249176         6.7804 
  43   0.0000       0.258013         7.0209 
  44   0.0000       0.268066         7.2944 
  45   0.0000       0.271921         7.3993 
  46   0.0000       0.288976         7.8634 
  47   0.0000       0.295733         8.0473 
  48   0.0000       0.311566         8.4781 
  49   0.0000       0.316895         8.6231 
  50   0.0000       0.317143         8.6299 
  51   0.0000       0.331840         9.0298 
  52   0.0000       0.344039         9.3618 
  53   0.0000       0.361186         9.8284 
  54   0.0000       0.368093        10.0163 
  55   0.0000       0.368836        10.0365 
  56   0.0000       0.370674        10.0865 
  57   0.0000       0.378161        10.2903 
  58   0.0000       0.385105        10.4792 
  59   0.0000       0.391190        10.6448 
  60   0.0000       0.398392        10.8408 
  61   0.0000       0.417206        11.3527 
  62   0.0000       0.417395        11.3579 
  63   0.0000       0.427805        11.6412 
  64   0.0000       0.430095        11.7035 
  65   0.0000       0.444763        12.1026 
  66   0.0000       0.452391        12.3102 
  67   0.0000       0.458755        12.4834 
  68   0.0000       0.467143        12.7116 
  69   0.0000       0.478746        13.0273 
  70   0.0000       0.488344        13.2885 
  71   0.0000       0.491511        13.3747 
  72   0.0000       0.493751        13.4356 
  73   0.0000       0.500838        13.6285 
  74   0.0000       0.501711        13.6523 
  75   0.0000       0.507551        13.8112 
  76   0.0000       0.517402        14.0792 
  77   0.0000       0.520833        14.1726 
  78   0.0000       0.532373        14.4866 
  79   0.0000       0.538299        14.6479 
  80   0.0000       0.540176        14.6989 
  81   0.0000       0.557913        15.1816 
  82   0.0000       0.566661        15.4196 
  83   0.0000       0.574204        15.6249 
  84   0.0000       0.581515        15.8238 
  85   0.0000       0.587162        15.9775 
  86   0.0000       0.593441        16.1483 
  87   0.0000       0.610250        16.6057 
  88   0.0000       0.613193        16.6858 
  89   0.0000       0.621962        16.9244 
  90   0.0000       0.633469        17.2376 
  91   0.0000       0.637910        17.3584 
  92   0.0000       0.652514        17.7558 
  93   0.0000       0.660101        17.9623 
  94   0.0000       0.682920        18.5832 
  95   0.0000       0.685467        18.6525 
  96   0.0000       0.717595        19.5268 
  97   0.0000       0.721728        19.6392 
  98   0.0000       0.729159        19.8414 
  99   0.0000       0.733665        19.9641 
 100   0.0000       0.738930        20.1073 
 101   0.0000       0.744872        20.2690 
 102   0.0000       0.752570        20.4785 
 103   0.0000       0.763453        20.7746 
 104   0.0000       0.765740        20.8368 
 105   0.0000       0.767434        20.8829 
 106   0.0000       0.782198        21.2847 
 107   0.0000       0.790522        21.5112 
 108   0.0000       0.795484        21.6462 
 109   0.0000       0.808765        22.0076 
 110   0.0000       0.816150        22.2086 
 111   0.0000       0.841361        22.8946 
 112   0.0000       0.854269        23.2458 
 113   0.0000       0.860586        23.4177 
 114   0.0000       0.863612        23.5001 
 115   0.0000       0.877463        23.8770 
 116   0.0000       0.886863        24.1328 
 117   0.0000       0.910479        24.7754 
 118   0.0000       0.917462        24.9654 
 119   0.0000       0.922987        25.1158 
 120   0.0000       0.946099        25.7447 
 121   0.0000       0.947988        25.7961 
 122   0.0000       0.954783        25.9810 
 123   0.0000       0.968012        26.3409 
 124   0.0000       0.978495        26.6262 
 125   0.0000       0.981113        26.6974 
 126   0.0000       0.987350        26.8671 
 127   0.0000       1.003492        27.3064 
 128   0.0000       1.003920        27.3180 
 129   0.0000       1.021983        27.8096 
 130   0.0000       1.030184        28.0327 
 131   0.0000       1.041950        28.3529 
 132   0.0000       1.045544        28.4507 
 133   0.0000       1.048147        28.5215 
 134   0.0000       1.056601        28.7516 
 135   0.0000       1.065969        29.0065 
 136   0.0000       1.075636        29.2695 
 137   0.0000       1.081235        29.4219 
 138   0.0000       1.087630        29.5959 
 139   0.0000       1.105876        30.0924 
 140   0.0000       1.107035        30.1239 
 141   0.0000       1.129549        30.7366 
 142   0.0000       1.143188        31.1077 
 143   0.0000       1.168525        31.7972 
 144   0.0000       1.181807        32.1586 
 145   0.0000       1.186621        32.2896 
 146   0.0000       1.193578        32.4789 
 147   0.0000       1.204334        32.7716 
 148   0.0000       1.205471        32.8025 
 149   0.0000       1.219320        33.1794 
 150   0.0000       1.219696        33.1896 
 151   0.0000       1.240074        33.7441 
 152   0.0000       1.264166        34.3997 
 153   0.0000       1.292560        35.1723 
 154   0.0000       1.330741        36.2113 
 155   0.0000       1.330818        36.2134 
 156   0.0000       1.346505        36.6403 
 157   0.0000       1.353654        36.8348 
 158   0.0000       1.355993        36.8985 
 159   0.0000       1.371971        37.3332 
 160   0.0000       1.388705        37.7886 
 161   0.0000       1.390403        37.8348 
 162   0.0000       1.416988        38.5582 
 163   0.0000       1.437519        39.1169 
 164   0.0000       1.461993        39.7828 
 165   0.0000       1.466399        39.9027 
 166   0.0000       1.486471        40.4489 
 167   0.0000       1.496030        40.7090 
 168   0.0000       1.514332        41.2071 
 169   0.0000       1.549738        42.1705 
 170   0.0000       1.579703        42.9859 
 171   0.0000       1.586841        43.1801 
 172   0.0000       1.587927        43.2097 
 173   0.0000       1.634019        44.4639 
 174   0.0000       1.635898        44.5150 
 175   0.0000       1.655163        45.0393 
 176   0.0000       1.693599        46.0852 
 177   0.0000       1.741519        47.3891 
 178   0.0000       1.751590        47.6632 
 179   0.0000       1.764596        48.0171 
 180   0.0000       1.798294        48.9341 
 181   0.0000       1.814354        49.3711 
 182   0.0000       1.857358        50.5413 
 183   0.0000       1.921113        52.2761 
 184   0.0000       1.923160        52.3318 
 185   0.0000       1.931696        52.5641 
 186   0.0000       1.996010        54.3142 
 187   0.0000       2.030105        55.2420 
 188   0.0000       2.107289        57.3423 
 189   0.0000       2.145565        58.3838 
 190   0.0000       2.176737        59.2320 
 191   0.0000       2.225626        60.5624 
 192   0.0000       2.258417        61.4547 
 193   0.0000       2.286260        62.2123 
 194   0.0000       2.309050        62.8324 
 195   0.0000       2.317242        63.0554 
 196   0.0000       2.389544        65.0228 
 197   0.0000       2.390822        65.0576 
 198   0.0000       2.401710        65.3538 
 199   0.0000       2.404008        65.4164 
 200   0.0000       2.422482        65.9191 
 201   0.0000       2.429702        66.1156 
 202   0.0000       2.487805        67.6966 
 203   0.0000       2.523687        68.6730 
 204   0.0000       2.586486        70.3819 
 205   0.0000       2.664277        72.4987 
 206   0.0000       2.669730        72.6470 
 207   0.0000       2.788752        75.8858 
 208   0.0000       2.833531        77.1043 
 209   0.0000       2.849895        77.5496 
 210   0.0000       2.885124        78.5082 
 211   0.0000       2.916548        79.3633 
 212   0.0000       2.937508        79.9337 
 213   0.0000       3.004912        81.7678 
 214   0.0000       3.167145        86.1824 
 215   0.0000       3.254132        88.5494 
 216   0.0000       3.327757        90.5529 
 217   0.0000       3.359131        91.4066 
 218   0.0000       3.394178        92.3603 
 219   0.0000       3.408178        92.7412 
 220   0.0000       3.434165        93.4484 
 221   0.0000       3.444980        93.7427 
 222   0.0000       3.507986        95.4572 
 223   0.0000       3.527514        95.9885 
 224   0.0000       3.564936        97.0068 
 225   0.0000       3.593708        97.7898 
 226   0.0000       3.596474        97.8650 
 227   0.0000       3.661127        99.6243 
 228   0.0000       3.718469       101.1847 
 229   0.0000       3.727792       101.4384 
 230   0.0000       3.751585       102.0858 
 231   0.0000       3.886249       105.7502 
 232   0.0000       3.929830       106.9361 
 233   0.0000       3.940701       107.2319 
 234   0.0000       3.945583       107.3648 
 235   0.0000       3.970552       108.0442 
 236   0.0000       4.073263       110.8391 
 237   0.0000       4.129317       112.3644 
 238   0.0000       4.161452       113.2389 
 239   0.0000       4.249933       115.6466 
 240   0.0000       4.257726       115.8586 
 241   0.0000       4.275952       116.3546 
 242   0.0000       4.344510       118.2201 
 243   0.0000       4.477166       121.8299 
 244   0.0000       4.525721       123.1511 
 245   0.0000       4.576879       124.5432 
 246   0.0000       4.590377       124.9105 
 247   0.0000       4.656048       126.6975 
 248   0.0000       4.743413       129.0748 
 249   0.0000       4.908088       133.5559 
 250   0.0000       4.947181       134.6196 
 251   0.0000       5.052994       137.4990 
 252   0.0000       5.217583       141.9777 
 253   0.0000       5.248076       142.8074 
 254   0.0000       5.275127       143.5435 
 255   0.0000       5.317639       144.7003 
 256   0.0000       5.417427       147.4157 
 257   0.0000       5.446295       148.2012 
 258   0.0000       5.453863       148.4072 
 259   0.0000       5.518699       150.1714 
 260   0.0000       5.556504       151.2001 
 261   0.0000       5.603108       152.4683 
 262   0.0000       5.629267       153.1801 
 263   0.0000       5.634163       153.3134 
 264   0.0000       5.744649       156.3198 
 265   0.0000       5.804661       157.9529 
 266   0.0000       6.020375       163.8227 
 267   0.0000       6.043578       164.4541 
 268   0.0000       6.104936       166.1238 
 269   0.0000       6.160439       167.6341 
 270   0.0000       6.202534       168.7795 
 271   0.0000       6.202823       168.7874 
 272   0.0000       6.211543       169.0247 
 273   0.0000       6.223406       169.3475 
 274   0.0000       6.313640       171.8029 
 275   0.0000       6.352244       172.8534 
 276   0.0000       6.522287       177.4804 
 277   0.0000       6.551756       178.2823 
 278   0.0000       6.664980       181.3633 
 279   0.0000       6.666433       181.4029 
 280   0.0000       6.871022       186.9700 
 281   0.0000       7.043504       191.6635 
 282   0.0000       7.152924       194.6410 
 283   0.0000       7.156268       194.7320 
 284   0.0000       7.159933       194.8317 
 285   0.0000       7.161746       194.8810 
 286   0.0000       7.314402       199.0350 
 287   0.0000       7.322736       199.2618 
 288   0.0000       7.392067       201.1484 
 289   0.0000       7.393642       201.1912 
 290   0.0000       7.412446       201.7029 
 291   0.0000       7.435458       202.3291 
 292   0.0000       7.443413       202.5456 
 293   0.0000       7.608149       207.0283 
 294   0.0000       8.238137       224.1711 
 295   0.0000       8.300307       225.8628 
 296   0.0000       8.334842       226.8026 
 297   0.0000       8.345029       227.0798 
 298   0.0000       8.348177       227.1654 
 299   0.0000       8.400504       228.5893 
 300   0.0000       8.528934       232.0841 
 301   0.0000       8.767758       238.5828 
 302   0.0000       8.773209       238.7311 
 303   0.0000       8.810767       239.7532 
 304   0.0000       8.866640       241.2735 
 305   0.0000       9.000891       244.9267 
 306   0.0000       9.096173       247.5195 
 307   0.0000       9.123049       248.2508 
 308   0.0000       9.266670       252.1589 
 309   0.0000       9.352813       254.5030 
 310   0.0000       9.482657       258.0362 
 311   0.0000       9.670599       263.1504 
 312   0.0000       9.778944       266.0986 
 313   0.0000      10.005418       272.2613 
 314   0.0000      10.405285       283.1422 
 315   0.0000      10.498505       285.6788 
 316   0.0000      10.652502       289.8693 
 317   0.0000      10.671700       290.3917 
 318   0.0000      10.779162       293.3159 
 319   0.0000      10.937883       297.6349 
 320   0.0000      11.206758       304.9514 
 321   0.0000      11.291452       307.2560 
 322   0.0000      11.490820       312.6811 
 323   0.0000      11.649362       316.9953 
 324   0.0000      11.688600       318.0630 
 325   0.0000      11.740020       319.4622 
 326   0.0000      11.773324       320.3684 
 327   0.0000      11.824307       321.7557 
 328   0.0000      11.926648       324.5406 
 329   0.0000      11.976204       325.8891 
 330   0.0000      11.977659       325.9287 
 331   0.0000      12.030088       327.3553 
 332   0.0000      12.039497       327.6114 
 333   0.0000      12.055274       328.0407 
 334   0.0000      12.057690       328.1064 
 335   0.0000      12.086701       328.8959 
 336   0.0000      12.103295       329.3474 
 337   0.0000      12.306770       334.8842 
 338   0.0000      12.327175       335.4395 
 339   0.0000      12.331476       335.5565 
 340   0.0000      12.468740       339.2917 
 341   0.0000      12.535347       341.1041 
 342   0.0000      12.563219       341.8626 
 343   0.0000      12.570073       342.0491 
 344   0.0000      12.629627       343.6696 
 345   0.0000      12.641657       343.9970 
 346   0.0000      12.667521       344.7008 
 347   0.0000      12.667594       344.7027 
 348   0.0000      12.721813       346.1781 
 349   0.0000      12.721822       346.1784 
 350   0.0000      12.775065       347.6272 
 351   0.0000      12.787902       347.9765 
 352   0.0000      12.889112       350.7306 
 353   0.0000      12.909710       351.2911 
 354   0.0000      13.068261       355.6054 
 355   0.0000      13.068698       355.6173 
 356   0.0000      13.104913       356.6028 
 357   0.0000      13.681044       372.2801 
 358   0.0000      13.704232       372.9111 
 359   0.0000      13.715375       373.2143 
 360   0.0000      13.769262       374.6807 
 361   0.0000      13.780789       374.9943 
 362   0.0000      14.013225       381.3192 
 363   0.0000      14.297301       389.0493 
 364   0.0000      14.344153       390.3243 
 365   0.0000      14.498529       394.5250 
 366   0.0000      14.603615       397.3846 
 367   0.0000      14.677658       399.3994 
 368   0.0000      14.700387       400.0179 
 369   0.0000      14.736650       401.0046 
 370   0.0000      15.039708       409.2513 
 371   0.0000      15.040989       409.2861 
 372   0.0000      15.065702       409.9586 
 373   0.0000      15.411124       419.3580 
 374   0.0000      15.522882       422.3991 
 375   0.0000      15.524026       422.4302 
 376   0.0000      15.615429       424.9174 
 377   0.0000      15.733012       428.1170 
 378   0.0000      16.254324       442.3027 
 379   0.0000      16.655892       453.2299 
 380   0.0000      16.660723       453.3613 
 381   0.0000      16.778721       456.5722 
 382   0.0000      16.778821       456.5749 
 383   0.0000      16.997308       462.5203 
 384   0.0000      17.010833       462.8883 
 385   0.0000      17.024296       463.2546 
 386   0.0000      17.042789       463.7579 
 387   0.0000      17.071257       464.5325 
 388   0.0000      17.156611       466.8551 
 389   0.0000      17.229206       468.8305 
 390   0.0000      17.431925       474.3468 
 391   0.0000      17.464522       475.2338 
 392   0.0000      17.602358       478.9845 
 393   0.0000      17.632065       479.7929 
 394   0.0000      17.656193       480.4494 
 395   0.0000      17.723645       482.2849 
 396   0.0000      17.838691       485.4154 
 397   0.0000      17.839451       485.4361 
 398   0.0000      17.902944       487.1639 
 399   0.0000      18.250896       496.6321 
 400   0.0000      18.278621       497.3866 
 401   0.0000      18.906203       514.4639 
 402   0.0000      18.940033       515.3845 
 403   0.0000      19.628448       534.1172 
 404   0.0000      19.631112       534.1897 
 405   0.0000      19.656000       534.8670 
 406   0.0000      19.688040       535.7388 
 407   0.0000      20.155031       548.4463 
 408   0.0000      20.155201       548.4509 
 409   0.0000      20.302888       552.4697 
 410   0.0000      20.309984       552.6628 
 411   0.0000      20.339025       553.4530 
 412   0.0000      20.339080       553.4545 
 413   0.0000      20.578539       559.9705 
 414   0.0000      20.863431       567.7228 
 415   0.0000      20.906939       568.9067 
 416   0.0000      20.976731       570.8059 
 417   0.0000      21.012987       571.7924 
 418   0.0000      21.420575       582.8835 
 419   0.0000      22.826873       621.1508 
 420   0.0000      22.863163       622.1383 
 421   0.0000      23.033801       626.7816 
 422   0.0000      23.132490       629.4670 
 423   0.0000      23.265896       633.0972 
 424   0.0000      23.482969       639.0041 
 425   0.0000      23.643668       643.3769 
 426   0.0000      23.652114       643.6067 
 427   0.0000      23.862191       649.3232 
 428   0.0000      24.148665       657.1186 
 429   0.0000      24.197371       658.4439 
 430   0.0000      26.556715       722.6449 
 431   0.0000      27.101352       737.4653 
 432   0.0000      28.717592       781.4454 
 433   0.0000      30.384572       826.8062 
 434   0.0000      30.395141       827.0938 
 435   0.0000      30.532584       830.8339 
 436   0.0000      31.058141       845.1350 
 437   0.0000      31.120101       846.8210 
 438   0.0000      32.006604       870.9440 
 439   0.0000      32.465655       883.4354 
 440   0.0000      34.027895       925.9461 
 441   0.0000      34.438225       937.1118 
 442   0.0000      41.131249      1119.2382 
 443   0.0000      41.197391      1121.0380 
 444   0.0000      41.915579      1140.5809 
 445   0.0000      41.984850      1142.4658 
 446   0.0000      42.542673      1157.6450 
 447   0.0000      45.537745      1239.1450 
 448   0.0000      66.556404      1811.0918 
 449   0.0000      66.689684      1814.7186 
 450   0.0000      66.857903      1819.2960 
 451   0.0000      67.037112      1824.1725 
 452   0.0000      68.612556      1867.0426 
 453   0.0000      90.884593      2473.0955 
 454   0.0000      90.986613      2475.8716 
 455   0.0000      91.123733      2479.6028 
 456   0.0000      91.164941      2480.7242 
 457   0.0000      91.314003      2484.7803 
 458   0.0000      91.323854      2485.0484 
 459   0.0000      91.771059      2497.2175 
 460   0.0000      91.814918      2498.4109 
 461   0.0000      93.032661      2531.5474 
 462   0.0000      93.324471      2539.4880 
 463   0.0000      95.275111      2592.5676 
 464   0.0000     143.327312      3900.1344 
 465   0.0000     203.114495      5527.0264 

                    ********************************
                    * MULLIKEN POPULATION ANALYSIS *
                    ********************************

--------------------------------------------
MULLIKEN ATOMIC CHARGES AND SPIN POPULATIONS
--------------------------------------------
   0 H :    0.278962   -0.016310
   1 F :   -0.302729    0.016079
   2 O :   -0.192542    0.993383
   3 H :    0.216309    0.006848
Sum of atomic charges         :   -0.0000000
Sum of atomic spin populations:    1.0000000

-----------------------------------------------------
MULLIKEN REDUCED ORBITAL CHARGES AND SPIN POPULATIONS
-----------------------------------------------------
CHARGE
  0 H s       :     0.621263  s :     0.621263
      pz      :     0.027178  p :     0.097380
      px      :     0.033204
      py      :     0.036998
      dz2     :    -0.000755  d :    -0.002298
      dxz     :    -0.001849
      dyz     :     0.000354
      dx2y2   :    -0.000012
      dxy     :    -0.000035
      f0      :     0.001883  f :     0.006305
      f+1     :     0.002212
      f-1     :     0.002347
      f+2     :    -0.000037
      f-2     :    -0.000091
      f+3     :    -0.000011
      f-3     :     0.000001
      g0      :    -0.000423  g :    -0.001611
      g+1     :    -0.000702
      g-1     :    -0.000348
      g+2     :    -0.000030
      g-2     :    -0.000092
      g+3     :    -0.000016
      g-3     :    -0.000000
      g+4     :    -0.000001
      g-4     :     0.000000
  1 F s       :     3.888399  s :     3.888399
      pz      :     1.476903  p :     5.409202
      px      :     1.977267
      py      :     1.955031
      dz2     :     0.001114  d :     0.006999
      dxz     :     0.002675
      dyz     :     0.003236
      dx2y2   :    -0.000022
      dxy     :    -0.000004
      f0      :    -0.000389  f :    -0.000782
      f+1     :    -0.000498
      f-1     :     0.000175
      f+2     :    -0.000029
      f-2     :    -0.000041
      f+3     :    -0.000001
      f-3     :    -0.000000
      g0      :    -0.000204  g :    -0.000838
      g+1     :    -0.000401
      g-1     :    -0.000196
      g+2     :    -0.000017
      g-2     :    -0.000021
      g+3     :     0.000001
      g-3     :    -0.000000
      g+4     :     0.000000
      g-4     :    -0.000000
      h0      :    -0.000050  h :    -0.000250
      h+1     :    -0.000110
      h-1     :    -0.000074
      h+2     :    -0.000006
      h-2     :    -0.000009
      h+3     :     0.000000
      h-3     :    -0.000000
      h+4     :    -0.000000
      h-4     :    -0.000000
      h+5     :    -0.000000
      h-5     :     0.000000
  2 O s       :     3.896980  s :     3.896980
      pz      :     1.903694  p :     4.293451
      px      :     1.404498
      py      :     0.985260
      dz2     :     0.002819  d :     0.005151
      dxz     :    -0.002231
      dyz     :    -0.001241
      dx2y2   :     0.004625
      dxy     :     0.001178
      f0      :    -0.000732  f :    -0.002159
      f+1     :    -0.001741
      f-1     :     0.000241
      f+2     :     0.000009
      f-2     :     0.000032
      f+3     :     0.000062
      f-3     :    -0.000031
      g0      :    -0.000239  g :    -0.000702
      g+1     :    -0.000362
      g-1     :    -0.000141
      g+2     :     0.000026
      g-2     :    -0.000020
      g+3     :     0.000012
      g-3     :    -0.000000
      g+4     :     0.000021
      g-4     :    -0.000000
      h0      :    -0.000027  h :    -0.000178
      h+1     :    -0.000089
      h-1     :    -0.000062
      h+2     :     0.000002
      h-2     :    -0.000002
      h+3     :     0.000001
      h-3     :     0.000000
      h+4     :     0.000001
      h-4     :    -0.000000
      h+5     :    -0.000001
      h-5     :    -0.000000
  3 H s       :     0.695066  s :     0.695066
      pz      :     0.040996  p :     0.083691
      px      :     0.025453
      py      :     0.017243
      dz2     :    -0.001947  d :     0.005583
      dxz     :     0.004077
      dyz     :    -0.000703
      dx2y2   :     0.002157
      dxy     :     0.001999
      f0      :    -0.000504  f :    -0.000627
      f+1     :     0.000484
      f-1     :    -0.000739
      f+2     :     0.000195
      f-2     :    -0.000169
      f+3     :    -0.000058
      f-3     :     0.000164
      g0      :     0.000122  g :    -0.000022
      g+1     :     0.000030
      g-1     :    -0.000086
      g+2     :     0.000100
      g-2     :    -0.000147
      g+3     :    -0.000006
      g-3     :    -0.000020
      g+4     :    -0.000029
      g-4     :     0.000014

SPIN
  0 H s       :    -0.012174  s :    -0.012174
      pz      :    -0.003478  p :    -0.006141
      px      :     0.000428
      py      :    -0.003092
      dz2     :    -0.000125  d :     0.001244
      dxz     :     0.001510
      dyz     :    -0.000193
      dx2y2   :     0.000116
      dxy     :    -0.000064
      f0      :     0.000098  f :     0.001064
      f+1     :    -0.000034
      f-1     :     0.000767
      f+2     :     0.000329
      f-2     :    -0.000112
      f+3     :     0.000014
      f-3     :     0.000001
      g0      :     0.000018  g :    -0.000303
      g+1     :     0.000088
      g-1     :    -0.000314
      g+2     :    -0.000023
      g-2     :    -0.000092
      g+3     :     0.000018
      g-3     :     0.000000
      g+4     :     0.000001
      g-4     :     0.000000
  1 F s       :     0.003336  s :     0.003336
      pz      :    -0.000095  p :     0.012696
      px      :    -0.000300
      py      :     0.013092
      dz2     :     0.000519  d :     0.001105
      dxz     :    -0.000309
      dyz     :     0.000842
      dx2y2   :     0.000071
      dxy     :    -0.000018
      f0      :    -0.000211  f :    -0.000463
      f+1     :    -0.000144
      f-1     :    -0.000076
      f+2     :     0.000010
      f-2     :    -0.000042
      f+3     :     0.000001
      f-3     :    -0.000000
      g0      :    -0.000150  g :    -0.000451
      g+1     :    -0.000071
      g-1     :    -0.000210
      g+2     :     0.000001
      g-2     :    -0.000021
      g+3     :    -0.000000
      g-3     :    -0.000000
      g+4     :    -0.000000
      g-4     :    -0.000000
      h0      :    -0.000036  h :    -0.000144
      h+1     :    -0.000023
      h-1     :    -0.000074
      h+2     :    -0.000000
      h-2     :    -0.000010
      h+3     :    -0.000000
      h-3     :    -0.000000
      h+4     :    -0.000000
      h-4     :    -0.000000
      h+5     :    -0.000000
      h-5     :     0.000000
  2 O s       :     0.009913  s :     0.009913
      pz      :     0.006186  p :     0.981437
      px      :     0.006096
      py      :     0.969155
      dz2     :     0.000529  d :     0.002255
      dxz     :     0.000445
      dyz     :     0.000045
      dx2y2   :     0.000093
      dxy     :     0.001143
      f0      :     0.000267  f :    -0.000228
      f+1     :     0.000050
      f-1     :     0.000008
      f+2     :    -0.000083
      f-2     :     0.000040
      f+3     :    -0.000474
      f-3     :    -0.000036
      g0      :     0.000016  g :    -0.000003
      g+1     :    -0.000006
      g-1     :    -0.000024
      g+2     :     0.000004
      g-2     :     0.000016
      g+3     :    -0.000001
      g-3     :     0.000000
      g+4     :    -0.000007
      g-4     :    -0.000000
      h0      :     0.000005  h :     0.000009
      h+1     :    -0.000003
      h-1     :    -0.000000
      h+2     :    -0.000001
      h-2     :     0.000005
      h+3     :    -0.000001
      h-3     :    -0.000000
      h+4     :     0.000000
      h-4     :    -0.000000
      h+5     :     0.000004
      h-5     :     0.000000
  3 H s       :    -0.005695  s :    -0.005695
      pz      :    -0.003848  p :     0.008969
      px      :    -0.003651
      py      :     0.016467
      dz2     :     0.000385  d :     0.002913
      dxz     :     0.000463
      dyz     :     0.000273
      dx2y2   :    -0.000294
      dxy     :     0.002087
      f0      :    -0.000195  f :     0.000618
      f+1     :     0.000315
      f-1     :     0.000015
      f+2     :     0.000125
      f-2     :     0.000122
      f+3     :    -0.000001
      f-3     :     0.000236
      g0      :     0.000001  g :     0.000044
      g+1     :    -0.000051
      g-1     :     0.000029
      g+2     :     0.000018
      g-2     :    -0.000004
      g+3     :     0.000011
      g-3     :     0.000014
      g+4     :     0.000003
      g-4     :     0.000023


                     *******************************
                     * LOEWDIN POPULATION ANALYSIS *
                     *******************************

-------------------------------------------
LOEWDIN ATOMIC CHARGES AND SPIN POPULATIONS
-------------------------------------------
   0 H :   -1.212896    0.033886
   1 F :    0.977975    0.021224
   2 O :    0.996196    0.783081
   3 H :   -0.761275    0.161809

----------------------------------------------------
LOEWDIN REDUCED ORBITAL CHARGES AND SPIN POPULATIONS
----------------------------------------------------
CHARGE
  0 H s       :     0.569764  s :     0.569764
      pz      :     0.414212  p :     0.718026
      px      :     0.154149
      py      :     0.149664
      dz2     :     0.266299  d :     0.616347
      dxz     :     0.185080
      dyz     :     0.163867
      dx2y2   :     0.000872
      dxy     :     0.000229
      f0      :     0.075112  f :     0.223969
      f+1     :     0.080393
      f-1     :     0.065420
      f+2     :     0.002473
      f-2     :     0.000519
      f+3     :     0.000050
      f-3     :     0.000003
      g0      :     0.034089  g :     0.084789
      g+1     :     0.030813
      g-1     :     0.014664
      g+2     :     0.004203
      g-2     :     0.000747
      g+3     :     0.000254
      g-3     :     0.000016
      g+4     :     0.000004
      g-4     :     0.000000
  1 F s       :     3.227256  s :     3.227256
      pz      :     1.503237  p :     4.617489
      px      :     1.562430
      py      :     1.551822
      dz2     :     0.047109  d :     0.060920
      dxz     :     0.008156
      dyz     :     0.005549
      dx2y2   :     0.000084
      dxy     :     0.000024
      f0      :     0.033168  f :     0.049564
      f+1     :     0.010351
      f-1     :     0.005524
      f+2     :     0.000398
      f-2     :     0.000106
      f+3     :     0.000014
      f-3     :     0.000002
      g0      :     0.023363  g :     0.036649
      g+1     :     0.008173
      g-1     :     0.004780
      g+2     :     0.000248
      g-2     :     0.000079
      g+3     :     0.000005
      g-3     :     0.000000
      g+4     :     0.000000
      g-4     :     0.000000
      h0      :     0.017141  h :     0.030147
      h+1     :     0.007814
      h-1     :     0.004635
      h+2     :     0.000419
      h-2     :     0.000121
      h+3     :     0.000016
      h-3     :     0.000000
      h+4     :     0.000001
      h-4     :     0.000000
      h+5     :     0.000000
      h-5     :     0.000000
  2 O s       :     3.129533  s :     3.129533
      pz      :     1.462690  p :     3.588933
      px      :     1.350307
      py      :     0.775936
      dz2     :     0.042921  d :     0.086902
      dxz     :     0.017103
      dyz     :     0.008159
      dx2y2   :     0.017592
      dxy     :     0.001126
      f0      :     0.033768  f :     0.067588
      f+1     :     0.015722
      f-1     :     0.013376
      f+2     :     0.001647
      f-2     :     0.000203
      f+3     :     0.002347
      f-3     :     0.000525
      g0      :     0.032566  g :     0.070089
      g+1     :     0.018826
      g-1     :     0.016985
      g+2     :     0.000602
      g-2     :     0.000431
      g+3     :     0.000226
      g-3     :     0.000038
      g+4     :     0.000304
      g-4     :     0.000110
      h0      :     0.025737  h :     0.060759
      h+1     :     0.016905
      h-1     :     0.016362
      h+2     :     0.000671
      h-2     :     0.000692
      h+3     :     0.000090
      h-3     :     0.000019
      h+4     :     0.000088
      h-4     :     0.000025
      h+5     :     0.000118
      h-5     :     0.000053
  3 H s       :     0.642975  s :     0.642975
      pz      :     0.185662  p :     0.552982
      px      :     0.290088
      py      :     0.077232
      dz2     :     0.067154  d :     0.391607
      dxz     :     0.138367
      dyz     :     0.008725
      dx2y2   :     0.106841
      dxy     :     0.070520
      f0      :     0.021844  f :     0.129789
      f+1     :     0.037102
      f-1     :     0.005601
      f+2     :     0.024026
      f-2     :     0.006189
      f+3     :     0.015050
      f-3     :     0.019978
      g0      :     0.009880  g :     0.043921
      g+1     :     0.014235
      g-1     :     0.004549
      g+2     :     0.006719
      g-2     :     0.003428
      g+3     :     0.001778
      g-3     :     0.000897
      g+4     :     0.001365
      g-4     :     0.001068

SPIN
  0 H s       :    -0.001943  s :    -0.001943
      pz      :    -0.003362  p :    -0.002069
      px      :    -0.000432
      py      :     0.001724
      dz2     :    -0.000886  d :     0.016909
      dxz     :    -0.000676
      dyz     :     0.018275
      dx2y2   :    -0.000027
      dxy     :     0.000222
      f0      :    -0.000619  f :     0.008876
      f+1     :    -0.000439
      f-1     :     0.009504
      f+2     :    -0.000062
      f-2     :     0.000495
      f+3     :    -0.000005
      f-3     :     0.000003
      g0      :    -0.000190  g :     0.012113
      g+1     :    -0.000198
      g-1     :     0.011850
      g+2     :    -0.000079
      g-2     :     0.000741
      g+3     :    -0.000026
      g-3     :     0.000015
      g+4     :    -0.000000
      g-4     :     0.000000
  1 F s       :    -0.000409  s :    -0.000409
      pz      :    -0.001819  p :     0.008307
      px      :    -0.000017
      py      :     0.010143
      dz2     :    -0.000997  d :     0.000905
      dxz     :    -0.000174
      dyz     :     0.002056
      dx2y2   :    -0.000003
      dxy     :     0.000023
      f0      :    -0.000455  f :     0.004142
      f+1     :    -0.000175
      f-1     :     0.004675
      f+2     :    -0.000010
      f-2     :     0.000106
      f+3     :    -0.000001
      f-3     :     0.000002
      g0      :    -0.000092  g :     0.003816
      g+1     :    -0.000057
      g-1     :     0.003894
      g+2     :    -0.000005
      g-2     :     0.000076
      g+3     :    -0.000001
      g-3     :     0.000000
      g+4     :     0.000000
      g-4     :     0.000000
      h0      :     0.000059  h :     0.004463
      h+1     :     0.000019
      h-1     :     0.004272
      h+2     :    -0.000005
      h-2     :     0.000120
      h+3     :    -0.000002
      h-3     :     0.000000
      h+4     :    -0.000000
      h-4     :     0.000000
      h+5     :     0.000000
      h-5     :     0.000000
  2 O s       :     0.007277  s :     0.007277
      pz      :     0.008298  p :     0.774291
      px      :     0.009928
      py      :     0.756065
      dz2     :     0.000048  d :     0.000690
      dxz     :    -0.000294
      dyz     :     0.000245
      dx2y2   :    -0.000386
      dxy     :     0.001078
      f0      :     0.000021  f :     0.000280
      f+1     :     0.000017
      f-1     :     0.000148
      f+2     :     0.000026
      f-2     :     0.000065
      f+3     :    -0.000518
      f-3     :     0.000522
      g0      :    -0.000038  g :     0.000268
      g+1     :    -0.000008
      g-1     :     0.000196
      g+2     :     0.000000
      g-2     :     0.000001
      g+3     :    -0.000007
      g-3     :     0.000038
      g+4     :    -0.000023
      g-4     :     0.000108
      h0      :    -0.000024  h :     0.000276
      h+1     :    -0.000002
      h-1     :     0.000191
      h+2     :    -0.000001
      h-2     :     0.000035
      h+3     :    -0.000001
      h-3     :     0.000006
      h+4     :     0.000000
      h-4     :     0.000021
      h+5     :    -0.000000
      h-5     :     0.000051
  3 H s       :    -0.013382  s :    -0.013382
      pz      :    -0.003252  p :     0.071936
      px      :     0.001479
      py      :     0.073710
      dz2     :     0.001158  d :     0.076579
      dxz     :     0.001189
      dyz     :     0.005230
      dx2y2   :     0.000731
      dxy     :     0.068271
      f0      :     0.000383  f :     0.025141
      f+1     :     0.000563
      f-1     :     0.000711
      f+2     :     0.000160
      f-2     :     0.004107
      f+3     :    -0.000179
      f-3     :     0.019397
      g0      :     0.000012  g :     0.001535
      g+1     :     0.000023
      g-1     :     0.000187
      g+2     :    -0.000001
      g-2     :     0.000150
      g+3     :    -0.000033
      g-3     :     0.000288
      g+4     :    -0.000075
      g-4     :     0.000985


                      *****************************
                      * MAYER POPULATION ANALYSIS *
                      *****************************

  NA   - Mulliken gross atomic population
  ZA   - Total nuclear charge
  QA   - Mulliken gross atomic charge
  VA   - Mayer's total valence
  BVA  - Mayer's bonded valence
  FA   - Mayer's free valence

  ATOM       NA         ZA         QA         VA         BVA        FA
  0 H      0.7210     1.0000     0.2790     1.0379     1.0377     0.0002
  1 F      9.3027     9.0000    -0.3027     0.7911     0.7909     0.0002
  2 O      8.1925     8.0000    -0.1925     1.9933     1.0475     0.9458
  3 H      0.7837     1.0000     0.2163     1.0062     1.0063    -0.0001

  Mayer bond orders larger than 0.1
B(  0-H ,  1-F ) :   0.9136 B(  0-H ,  2-O ) :   0.1254 B(  1-F ,  2-O ) :  -0.1041 
B(  2-O ,  3-H ) :   1.0262 

-------
TIMINGS
-------

Total SCF time: 0 days 0 hours 17 min 40 sec 

Total time                  ....    1060.289 sec
Sum of individual times     ....    1059.056 sec  ( 99.9%)

Fock matrix formation       ....    1054.222 sec  ( 99.4%)
  XC integration            ....      18.150 sec  (  1.7% of F)
    Basis function eval.    ....       1.149 sec  (  6.3% of XC)
    Density eval.           ....       3.839 sec  ( 21.2% of XC)
    XC-Functional eval.     ....       0.143 sec  (  0.8% of XC)
    XC-Potential eval.      ....      12.394 sec  ( 68.3% of XC)
Diagonalization             ....       2.181 sec  (  0.2%)
Density matrix formation    ....       0.045 sec  (  0.0%)
Population analysis         ....       0.167 sec  (  0.0%)
Initial guess               ....       0.875 sec  (  0.1%)
Orbital Transformation      ....       0.000 sec  (  0.0%)
Orbital Orthonormalization  ....       0.000 sec  (  0.0%)
DIIS solution               ....       1.196 sec  (  0.1%)
Grid generation             ....       0.371 sec  (  0.0%)

-------------------------   --------------------
FINAL SINGLE POINT ENERGY      -176.102967526287
-------------------------   --------------------


                            ***************************************
                            *     ORCA property calculations      *
                            ***************************************

                                    ---------------------
                                    Active property flags
                                    ---------------------
   (+) Dipole Moment


------------------------------------------------------------------------------
                       ORCA ELECTRIC PROPERTIES CALCULATION
------------------------------------------------------------------------------

Dipole Moment Calculation                       ... on
Quadrupole Moment Calculation                   ... off
Polarizability Calculation                      ... off
GBWName                                         ... fh-oh_pbe_-0001_x.gbw
Electron density file                           ... fh-oh_pbe_-0001_x.scfp.tmp
The origin for moment calculation is the CENTER OF MASS  = ( 0.194920,  0.000000 -0.679422)

-------------
DIPOLE MOMENT
-------------
                                X             Y             Z
Electronic contribution:     -0.30776       0.00000       1.36919
Nuclear contribution   :      0.93855       0.00000      -2.47969
                        -----------------------------------------
Total Dipole Moment    :      0.63079       0.00000      -1.11049
                        -----------------------------------------
Magnitude (a.u.)       :      1.27714
Magnitude (Debye)      :      3.24623



--------------------
Rotational spectrum 
--------------------
 
Rotational constants in cm-1:    21.356998     0.246472     0.243660 
Rotational constants in MHz : 640266.678212  7389.040107  7304.739279 

 Dipole components along the rotational axes: 
x,y,z [a.u.] :     1.160733     0.532716    -0.000000 
x,y,z [Debye]:     2.950349     1.354057    -0.000000 

 

Timings for individual modules:

Sum of individual times         ...     1062.322 sec (=  17.705 min)
GTO integral calculation        ...        1.747 sec (=   0.029 min)   0.2 %
SCF iterations                  ...     1060.575 sec (=  17.676 min)  99.8 %
                             ****ORCA TERMINATED NORMALLY****
TOTAL RUN TIME: 0 days 0 hours 17 minutes 43 seconds 479 msec
