
                                 *****************
                                 * O   R   C   A *
                                 *****************

           --- An Ab Initio, DFT and Semiempirical electronic structure package ---

                  #######################################################
                  #                        -***-                        #
                  #          Department of theory and spectroscopy      #
                  #               Directorship: Frank Neese             #
                  #        Max Planck Institute fuer Kohlenforschung    #
                  #                Kaiser Wilhelm Platz 1               #
                  #                 D-45470 Muelheim/Ruhr               #
                  #                      Germany                        #
                  #                                                     #
                  #                  All rights reserved                #
                  #                        -***-                        #
                  #######################################################


                         Program Version 4.1.2  - RELEASE  -


 With contributions from (in alphabetic order):
   Daniel Aravena         : Magnetic Properties
   Michael Atanasov       : Ab Initio Ligand Field Theory
   Alexander A. Auer      : GIAO ZORA
   Ute Becker             : Parallelization
   Giovanni Bistoni       : ED, Open-shell LED
   Martin Brehm           : Molecular dynamics
   Dmytro Bykov           : SCF Hessian
   Vijay G. Chilkuri      : MRCI spin determinant printing
   Dipayan Datta          : RHF DLPNO-CCSD density
   Achintya Kumar Dutta   : EOM-CC, STEOM-CC
   Dmitry Ganyushin       : Spin-Orbit,Spin-Spin,Magnetic field MRCI
   Miquel Garcia          : C-PCM Hessian
   Yang Guo               : DLPNO-NEVPT2, CIM, IAO-localization
   Andreas Hansen         : Spin unrestricted coupled pair/coupled cluster methods
   Benjamin Helmich-Paris : CASSCF linear response (MC-RPA)
   Lee Huntington         : MR-EOM, pCC
   Robert Izsak           : Overlap fitted RIJCOSX, COSX-SCS-MP3, EOM
   Christian Kollmar      : KDIIS, OOCD, Brueckner-CCSD(T), CCSD density
   Simone Kossmann        : Meta GGA functionals, TD-DFT gradient, OOMP2, MP2 Hessian
   Martin Krupicka        : AUTO-CI
   Lucas Lang             : DCDCAS
   Dagmar Lenk            : GEPOL surface, SMD
   Dimitrios Liakos       : Extrapolation schemes; parallel MDCI
   Dimitrios Manganas     : ROCIS; embedding schemes
   Dimitrios Pantazis     : SARC Basis sets
   Taras Petrenko         : DFT Hessian,TD-DFT gradient, ASA, ECA, R-Raman, ABS, FL, XAS/XES, NRVS
   Peter Pinski           : DLPNO-MP2, DLPNO-MP2 Gradient
   Christoph Reimann      : Effective Core Potentials
   Marius Retegan         : Local ZFS, SOC
   Christoph Riplinger    : Optimizer, TS searches, QM/MM, DLPNO-CCSD(T), (RO)-DLPNO pert. Triples
   Tobias Risthaus        : Range-separated hybrids, TD-DFT gradient, RPA, STAB
   Michael Roemelt        : Restricted open shell CIS
   Masaaki Saitow         : Open-shell DLPNO
   Barbara Sandhoefer     : DKH picture change effects
   Avijit Sen             : IP-ROCIS
   Kantharuban Sivalingam : CASSCF convergence, NEVPT2, FIC-MRCI
   Bernardo de Souza      : ESD, SOC TD-DFT
   Georgi Stoychev        : AutoAux, RI-MP2 NMR
   Willem Van den Heuvel  : Paramagnetic NMR
   Boris Wezisla          : Elementary symmetry handling
   Frank Wennmohs         : Technical directorship


 We gratefully acknowledge several colleagues who have allowed us to
 interface, adapt or use parts of their codes:
   Stefan Grimme, W. Hujo, H. Kruse,             : VdW corrections, initial TS optimization,
                  C. Bannwarth                     DFT functionals, gCP, sTDA/sTD-DF
   Ed Valeev                                     : LibInt (2-el integral package), F12 methods
   Garnet Chan, S. Sharma, J. Yang, R. Olivares  : DMRG
   Ulf Ekstrom                                   : XCFun DFT Library
   Mihaly Kallay                                 : mrcc  (arbitrary order and MRCC methods)
   Andreas Klamt, Michael Diedenhofen            : otool_cosmo (COSMO solvation model)
   Jiri Pittner, Ondrej Demel                    : Mk-CCSD
   Frank Weinhold                                : gennbo (NPA and NBO analysis)
   Christopher J. Cramer and Donald G. Truhlar   : smd solvation model
   Lars Goerigk                                  : TD-DFT with DH, B97 family of functionals
   V. Asgeirsson, H. Jonsson                     : NEB implementation
   FAccTs GmbH                                   : IRC, NEB, NEB-TS, Multilevel


 Your calculation uses the libint2 library for the computation of 2-el integrals
 For citations please refer to: http://libint.valeyev.net

 This ORCA versions uses:
   CBLAS   interface :  Fast vector & matrix operations
   LAPACKE interface :  Fast linear algebra routines
   SCALAPACK package :  Parallel linear algebra routines


----- Orbital basis set information -----
Your calculation utilizes the basis: aug-pc-4
   H, C-F              : F. Jensen, J. Chem. Phys. 115, 9113 (2001).
                         F. Jensen, J. Chem. Phys. 116, 7372 (2002).
                         F. Jensen, J. Chem. Phys. 117, 9234 (2002).
   Si-Cl               : F. Jensen, T. Helgaker, J. Chem. Phys. 121, 3463 (2004).
   He-B, Ne-Mg, Al, Ar : F. Jensen, J. Phys. Chem. A 111, 11198 (2007).
   K, Ca, Ga-Kr        : F. Jensen, J. Chem. Phys. 136, 094110 (2012).
   Sc-Zn               : F. Jensen, J. Chem. Phys. 138, 014107 (2013).

================================================================================
                                        WARNINGS
                       Please study these warnings very carefully!
================================================================================


INFO   : the flag for use of LIBINT has been found!

================================================================================
                                       INPUT FILE
================================================================================
NAME = fh-oh_pbe_00.inp
|  1> !uks pbe nori aug-pc-4 grid5 nofinalgrid verytightscf
|  2> 
|  3> %maxcore 6000
|  4> 
|  5> %pal nprocs 4 end
|  6> 
|  7> %scf
|  8> 	efield 0.0, 0.0, 0.0
|  9> 	maxiter 200
| 10> end
| 11> 
| 12> * xyz 0 2
| 13> H 0.000000 0.000000 0.000000
| 14> F 0.000000 0.000000 0.927729
| 15> O 0.169084 0.000000 -1.803099
| 16> H 1.103782 0.000000 -2.068116
| 17> *
| 18> 
| 19>                          ****END OF INPUT****
================================================================================

                       ****************************
                       * Single Point Calculation *
                       ****************************

---------------------------------
CARTESIAN COORDINATES (ANGSTROEM)
---------------------------------
  H      0.000000    0.000000    0.000000
  F      0.000000    0.000000    0.927729
  O      0.169084    0.000000   -1.803099
  H      1.103782    0.000000   -2.068116

----------------------------
CARTESIAN COORDINATES (A.U.)
----------------------------
  NO LB      ZA    FRAG     MASS         X           Y           Z
   0 H     1.0000    0     1.008    0.000000    0.000000    0.000000
   1 F     9.0000    0    18.998    0.000000    0.000000    1.753154
   2 O     8.0000    0    15.999    0.319522    0.000000   -3.407363
   3 H     1.0000    0     1.008    2.085846    0.000000   -3.908173

--------------------------------
INTERNAL COORDINATES (ANGSTROEM)
--------------------------------
 H      0   0   0     0.000000000000     0.00000000     0.00000000
 F      1   0   0     0.927729000000     0.00000000     0.00000000
 O      1   2   0     1.811009498279   174.64280572     0.00000000
 H      3   1   2     0.971542259242   111.18693629     0.00000000

---------------------------
INTERNAL COORDINATES (A.U.)
---------------------------
 H      0   0   0     0.000000000000     0.00000000     0.00000000
 F      1   0   0     1.753153736497     0.00000000     0.00000000
 O      1   2   0     3.422311977678   174.64280572     0.00000000
 H      3   1   2     1.835948797498   111.18693629     0.00000000

---------------------
BASIS SET INFORMATION
---------------------
There are 3 groups of distinct atoms

 Group   1 Type H   : 12s7p4d3f2g contracted to 8s7p4d3f2g pattern {51111111/1111111/1111/111/11}
 Group   2 Type F   : 27s12p7d4f3g2h contracted to 9s8p7d4f3g2h pattern {1191111111/51111111/1111111/1111/111/11}
 Group   3 Type O   : 27s12p7d4f3g2h contracted to 9s8p7d4f3g2h pattern {1191111111/51111111/1111111/1111/111/11}

Atom   0H    basis set group =>   1
Atom   1F    basis set group =>   2
Atom   2O    basis set group =>   3
Atom   3H    basis set group =>   1


           ************************************************************
           *        Program running with 4 parallel MPI-processes     *
           *              working on a common directory               *
           ************************************************************
------------------------------------------------------------------------------
                           ORCA GTO INTEGRAL CALCULATION
------------------------------------------------------------------------------

                         BASIS SET STATISTICS AND STARTUP INFO

 # of primitive gaussian shells          ...  166
 # of primitive gaussian functions       ...  534
 # of contracted shells                  ...  114
 # of contracted basis functions         ...  466
 Highest angular momentum                ...    5
 Maximum contraction depth               ...   11
 Integral package used                   ... LIBINT
 Integral threshhold            Thresh   ...  1.000e-12
 Primitive cut-off              TCut     ...  1.000e-14


------------------------------ INTEGRAL EVALUATION ----------------------------


 * One electron integrals 
 Pre-screening matrix                    ... done
 Shell pair data                         ... done (   0.002 sec)



           ************************************************************
           *        Program running with 4 parallel MPI-processes     *
           *              working on a common directory               *
           ************************************************************
-------------------------------------------------------------------------------
                                 ORCA SCF
-------------------------------------------------------------------------------

------------
SCF SETTINGS
------------
Hamiltonian:
 Density Functional     Method          .... DFT(GTOs)
 Exchange Functional    Exchange        .... PBE
   PBE kappa parameter   XKappa         ....  0.804000
   PBE mue parameter    XMuePBE         ....  0.219520
 Correlation Functional Correlation     .... PBE
   PBE beta parameter  CBetaPBE         ....  0.066725
 LDA part of GGA corr.  LDAOpt          .... PW91-LDA
 Gradients option       PostSCFGGA      .... off
   Density functional embedding theory  .... OFF
   NL short-range parameter             ....  6.400000


General Settings:
 Integral files         IntName         .... fh-oh_pbe_00
 Hartree-Fock type      HFTyp           .... UHF
 Total Charge           Charge          ....    0
 Multiplicity           Mult            ....    2
 Number of Electrons    NEL             ....   19
 Basis Dimension        Dim             ....  466
 Nuclear Repulsion      ENuc            ....     27.4714926964 Eh

Convergence Acceleration:
 DIIS                   CNVDIIS         .... on
   Start iteration      DIISMaxIt       ....    12
   Startup error        DIISStart       ....  0.200000
   # of expansion vecs  DIISMaxEq       ....     5
   Bias factor          DIISBfac        ....   1.050
   Max. coefficient     DIISMaxC        ....  10.000
 Newton-Raphson         CNVNR           .... off
 SOSCF                  CNVSOSCF        .... off
 Level Shifting         CNVShift        .... on
   Level shift para.    LevelShift      ....    0.2500
   Turn off err/grad.   ShiftErr        ....    0.0010
 Zerner damping         CNVZerner       .... off
 Static damping         CNVDamp         .... on
   Fraction old density DampFac         ....    0.7000
   Max. Damping (<1)    DampMax         ....    0.9800
   Min. Damping (>=0)   DampMin         ....    0.0000
   Turn off err/grad.   DampErr         ....    0.1000
 Fernandez-Rico         CNVRico         .... off

SCF Procedure:
 Maximum # iterations   MaxIter         ....   200
 SCF integral mode      SCFMode         .... Direct
   Integral package                     .... LIBINT
 Reset frequency        DirectResetFreq ....    20
 Integral Threshold     Thresh          ....  1.000e-12 Eh
 Primitive CutOff       TCut            ....  1.000e-14 Eh

Convergence Tolerance:
 Convergence Check Mode ConvCheckMode   .... Total+1el-Energy
 Convergence forced     ConvForced      .... 0
 Energy Change          TolE            ....  1.000e-09 Eh
 1-El. energy change                    ....  1.000e-06 Eh
 DIIS Error             TolErr          ....  1.000e-08


Diagonalization of the overlap matrix:
Smallest eigenvalue                        ... 1.255e-06
Time for diagonalization                   ...    0.205 sec
Threshold for overlap eigenvalues          ... 1.000e-08
Number of eigenvalues below threshold      ... 0
Time for construction of square roots      ...    0.034 sec
Total time needed                          ...    0.240 sec

-------------------
DFT GRID GENERATION
-------------------

General Integration Accuracy     IntAcc      ...  5.010
Radial Grid Type                 RadialGrid  ... Gauss-Chebyshev
Angular Grid (max. acc.)         AngularGrid ... Lebedev-434
Angular grid pruning method      GridPruning ... 3 (G Style)
Weight generation scheme         WeightScheme... Becke
Basis function cutoff            BFCut       ...    1.0000e-12
Integration weight cutoff        WCut        ...    1.0000e-14
Grids for H and He will be reduced by one unit

# of grid points (after initial pruning)     ...  35044 (   0.0 sec)
# of grid points (after weights+screening)   ...  34560 (   0.0 sec)
nearest neighbour list constructed           ...    0.0 sec
Grid point re-assignment to atoms done       ...    0.0 sec
Grid point division into batches done        ...    0.2 sec
Reduced shell lists constructed in    0.3 sec

Total number of grid points                  ...    34560
Total number of batches                      ...      543
Average number of points per batch           ...       63
Average number of grid points per atom       ...     8640
Average number of shells per batch           ...    79.20 (69.48%)
Average number of basis functions per batch  ...   337.18 (72.36%)
Average number of large shells per batch     ...    69.94 (88.31%)
Average number of large basis fcns per batch ...   299.27 (88.76%)
Maximum spatial batch extension              ...  14.02, 13.43, 13.76 au
Average spatial batch extension              ...   0.88,  0.86,  0.72 au

Time for grid setup =    0.362 sec

------------------------------
INITIAL GUESS: MODEL POTENTIAL
------------------------------
Loading Hartree-Fock densities                     ... done
Calculating cut-offs                               ... done
Setting up the integral package                    ... done
Initializing the effective Hamiltonian             ... done
Starting the Coulomb interaction                   ... done (   0.0 sec)
Reading the grid                                   ... done
Mapping shells                                     ... done
Starting the XC term evaluation                    ... done (   0.6 sec)
  promolecular density results
     # of electrons  =     18.999023143
     EX              =    -18.655804200
     EC              =     -0.616543038
     EX+EC           =    -19.272347239
Transforming the Hamiltonian                       ... done (   0.0 sec)
Diagonalizing the Hamiltonian                      ... done (   0.0 sec)
Back transforming the eigenvectors                 ... done (   0.0 sec)
Now organizing SCF variables                       ... done
                      ------------------
                      INITIAL GUESS DONE (   1.2 sec)
                      ------------------
--------------
SCF ITERATIONS
--------------
ITER       Energy         Delta-E        Max-DP      RMS-DP      [F,P]     Damp
               ***  Starting incremental Fock matrix formation  ***
  0   -176.0528619131   0.000000000000 0.00870514  0.00009852  0.2125453 0.7000
  1   -176.0779140200  -0.025052106842 0.00591805  0.00006270  0.0640838 0.7000
                               ***Turning on DIIS***
  2   -176.0854587918  -0.007544771879 0.01094701  0.00009716  0.0160408 0.0000
  3   -176.1016233882  -0.016164596375 0.00253039  0.00003315  0.0351445 0.0000
  4   -176.1034883648  -0.001864976607 0.00106064  0.00001217  0.0094230 0.0000
  5   -176.1035892209  -0.000100856105 0.00044850  0.00000392  0.0035914 0.0000
  6   -176.1036036635  -0.000014442566 0.00024216  0.00000284  0.0003646 0.0000
  7   -176.1036052439  -0.000001580406 0.00004534  0.00000053  0.0003194 0.0000
  8   -176.1036054361  -0.000000192227 0.00001861  0.00000018  0.0000706 0.0000
  9   -176.1036054575  -0.000000021403 0.00000397  0.00000004  0.0000165 0.0000
 10   -176.1036054593  -0.000000001778 0.00000222  0.00000002  0.0000047 0.0000
 11   -176.1036054595  -0.000000000195 0.00000363  0.00000002  0.0000016 0.0000
 12   -176.1036054595  -0.000000000009 0.00000558  0.00000003  0.0000005 0.0000
                 **** Energy Check signals convergence ****

               *****************************************************
               *                     SUCCESS                       *
               *           SCF CONVERGED AFTER  13 CYCLES          *
               *****************************************************


----------------
TOTAL SCF ENERGY
----------------

Total Energy       :         -176.10360546 Eh           -4792.02273 eV

Components:
Nuclear Repulsion  :           27.47149270 Eh             747.53732 eV
Electronic Energy  :         -203.57509816 Eh           -5539.56005 eV
One Electron Energy:         -298.74741335 Eh           -8129.33040 eV
Two Electron Energy:           95.17231520 Eh            2589.77036 eV

Virial components:
Potential Energy   :         -351.72760033 Eh           -9570.99458 eV
Kinetic Energy     :          175.62399487 Eh            4778.97186 eV
Virial Ratio       :            2.00273089


DFT components:
N(Alpha)           :       10.000000977071 electrons
N(Beta)            :        9.000000896547 electrons
N(Total)           :       19.000001873618 electrons
E(X)               :      -18.908587798041 Eh       
E(C)               :       -0.617650474365 Eh       
E(XC)              :      -19.526238272406 Eh       
DFET-embed. en.    :        0.000000000000 Eh       

---------------
SCF CONVERGENCE
---------------

  Last Energy change         ...   -1.4637e-11  Tolerance :   1.0000e-09
  Last MAX-Density change    ...    6.1444e-06  Tolerance :   1.0000e-08
  Last RMS-Density change    ...    5.1777e-08  Tolerance :   1.0000e-09
  Last DIIS Error            ...    8.8475e-08  Tolerance :   1.0000e-08

             **** THE GBW FILE WAS UPDATED (fh-oh_pbe_00.gbw) ****
             **** DENSITY FILE WAS UPDATED (fh-oh_pbe_00.scfp.tmp) ****
             **** ENERGY FILE WAS UPDATED (fh-oh_pbe_00.en.tmp) ****
----------------------
UHF SPIN CONTAMINATION
----------------------

Warning: in a DFT calculation there is little theoretical justification to 
         calculate <S**2> as in Hartree-Fock theory. We will do it anyways
         but you should keep in mind that the values have only limited relevance

Expectation value of <S**2>     :     0.752393
Ideal value S*(S+1) for S=0.5   :     0.750000
Deviation                       :     0.002393

----------------
ORBITAL ENERGIES
----------------
                 SPIN UP ORBITALS
  NO   OCC          E(Eh)            E(eV) 
   0   1.0000     -24.222688      -659.1329 
   1   1.0000     -18.872976      -513.5598 
   2   1.0000      -1.074066       -29.2268 
   3   1.0000      -0.979499       -26.6535 
   4   1.0000      -0.487949       -13.2778 
   5   1.0000      -0.456619       -12.4252 
   6   1.0000      -0.409959       -11.1556 
   7   1.0000      -0.341491        -9.2925 
   8   1.0000      -0.329728        -8.9724 
   9   1.0000      -0.328032        -8.9262 
  10   0.0000      -0.048437        -1.3180 
  11   0.0000       0.010017         0.2726 
  12   0.0000       0.020084         0.5465 
  13   0.0000       0.020098         0.5469 
  14   0.0000       0.029884         0.8132 
  15   0.0000       0.049914         1.3582 
  16   0.0000       0.057588         1.5671 
  17   0.0000       0.061719         1.6795 
  18   0.0000       0.063204         1.7199 
  19   0.0000       0.077997         2.1224 
  20   0.0000       0.080126         2.1803 
  21   0.0000       0.096317         2.6209 
  22   0.0000       0.108049         2.9402 
  23   0.0000       0.112481         3.0608 
  24   0.0000       0.114947         3.1279 
  25   0.0000       0.126531         3.4431 
  26   0.0000       0.136841         3.7236 
  27   0.0000       0.140981         3.8363 
  28   0.0000       0.150281         4.0894 
  29   0.0000       0.157132         4.2758 
  30   0.0000       0.165543         4.5047 
  31   0.0000       0.166873         4.5408 
  32   0.0000       0.187844         5.1115 
  33   0.0000       0.194323         5.2878 
  34   0.0000       0.204016         5.5516 
  35   0.0000       0.207950         5.6586 
  36   0.0000       0.217570         5.9204 
  37   0.0000       0.221257         6.0207 
  38   0.0000       0.221948         6.0395 
  39   0.0000       0.226728         6.1696 
  40   0.0000       0.232685         6.3317 
  41   0.0000       0.246136         6.6977 
  42   0.0000       0.247007         6.7214 
  43   0.0000       0.253170         6.8891 
  44   0.0000       0.268252         7.2995 
  45   0.0000       0.269606         7.3363 
  46   0.0000       0.287028         7.8104 
  47   0.0000       0.293400         7.9838 
  48   0.0000       0.310689         8.4543 
  49   0.0000       0.315844         8.5946 
  50   0.0000       0.316514         8.6128 
  51   0.0000       0.330668         8.9979 
  52   0.0000       0.343793         9.3551 
  53   0.0000       0.359498         9.7824 
  54   0.0000       0.364160         9.9093 
  55   0.0000       0.366587         9.9753 
  56   0.0000       0.368174        10.0185 
  57   0.0000       0.376296        10.2395 
  58   0.0000       0.385251        10.4832 
  59   0.0000       0.389030        10.5860 
  60   0.0000       0.397671        10.8212 
  61   0.0000       0.416074        11.3219 
  62   0.0000       0.416395        11.3307 
  63   0.0000       0.419530        11.4160 
  64   0.0000       0.428074        11.6485 
  65   0.0000       0.444812        12.1040 
  66   0.0000       0.451585        12.2882 
  67   0.0000       0.454850        12.3771 
  68   0.0000       0.463175        12.6036 
  69   0.0000       0.475954        12.9514 
  70   0.0000       0.483339        13.1523 
  71   0.0000       0.485260        13.2046 
  72   0.0000       0.492588        13.4040 
  73   0.0000       0.496285        13.5046 
  74   0.0000       0.500701        13.6248 
  75   0.0000       0.504134        13.7182 
  76   0.0000       0.516627        14.0581 
  77   0.0000       0.520183        14.1549 
  78   0.0000       0.529019        14.3953 
  79   0.0000       0.533801        14.5255 
  80   0.0000       0.537921        14.6376 
  81   0.0000       0.554753        15.0956 
  82   0.0000       0.564529        15.3616 
  83   0.0000       0.572821        15.5873 
  84   0.0000       0.579866        15.7790 
  85   0.0000       0.584233        15.8978 
  86   0.0000       0.591038        16.0830 
  87   0.0000       0.607086        16.5196 
  88   0.0000       0.611696        16.6451 
  89   0.0000       0.619461        16.8564 
  90   0.0000       0.629915        17.1409 
  91   0.0000       0.636668        17.3246 
  92   0.0000       0.652444        17.7539 
  93   0.0000       0.658642        17.9226 
  94   0.0000       0.678807        18.4713 
  95   0.0000       0.681439        18.5429 
  96   0.0000       0.716632        19.5005 
  97   0.0000       0.716916        19.5083 
  98   0.0000       0.728157        19.8142 
  99   0.0000       0.732417        19.9301 
 100   0.0000       0.738767        20.1029 
 101   0.0000       0.744042        20.2464 
 102   0.0000       0.750250        20.4153 
 103   0.0000       0.761157        20.7121 
 104   0.0000       0.762394        20.7458 
 105   0.0000       0.766827        20.8664 
 106   0.0000       0.778942        21.1961 
 107   0.0000       0.785592        21.3771 
 108   0.0000       0.792799        21.5731 
 109   0.0000       0.805426        21.9168 
 110   0.0000       0.813973        22.1493 
 111   0.0000       0.839805        22.8523 
 112   0.0000       0.846424        23.0324 
 113   0.0000       0.855987        23.2926 
 114   0.0000       0.860773        23.4228 
 115   0.0000       0.869501        23.6603 
 116   0.0000       0.881004        23.9733 
 117   0.0000       0.903714        24.5913 
 118   0.0000       0.904856        24.6224 
 119   0.0000       0.914998        24.8984 
 120   0.0000       0.939324        25.5603 
 121   0.0000       0.940602        25.5951 
 122   0.0000       0.951418        25.8894 
 123   0.0000       0.955732        26.0068 
 124   0.0000       0.972621        26.4664 
 125   0.0000       0.976189        26.5635 
 126   0.0000       0.983869        26.7724 
 127   0.0000       0.996213        27.1083 
 128   0.0000       0.997563        27.1451 
 129   0.0000       1.019764        27.7492 
 130   0.0000       1.024323        27.8732 
 131   0.0000       1.036145        28.1950 
 132   0.0000       1.042691        28.3731 
 133   0.0000       1.043882        28.4055 
 134   0.0000       1.051899        28.6236 
 135   0.0000       1.061437        28.8832 
 136   0.0000       1.072057        29.1722 
 137   0.0000       1.078016        29.3343 
 138   0.0000       1.084557        29.5123 
 139   0.0000       1.103923        30.0393 
 140   0.0000       1.104213        30.0472 
 141   0.0000       1.127889        30.6914 
 142   0.0000       1.137235        30.9457 
 143   0.0000       1.161745        31.6127 
 144   0.0000       1.174667        31.9643 
 145   0.0000       1.182422        32.1753 
 146   0.0000       1.191454        32.4211 
 147   0.0000       1.194782        32.5117 
 148   0.0000       1.203724        32.7550 
 149   0.0000       1.217283        33.1240 
 150   0.0000       1.217613        33.1329 
 151   0.0000       1.237829        33.6830 
 152   0.0000       1.257598        34.2210 
 153   0.0000       1.288488        35.0615 
 154   0.0000       1.329671        36.1822 
 155   0.0000       1.329740        36.1841 
 156   0.0000       1.343520        36.5590 
 157   0.0000       1.348092        36.6834 
 158   0.0000       1.353429        36.8287 
 159   0.0000       1.368501        37.2388 
 160   0.0000       1.384780        37.6818 
 161   0.0000       1.386357        37.7247 
 162   0.0000       1.411770        38.4162 
 163   0.0000       1.434275        39.0286 
 164   0.0000       1.461454        39.7682 
 165   0.0000       1.461470        39.7686 
 166   0.0000       1.484354        40.3913 
 167   0.0000       1.492738        40.6195 
 168   0.0000       1.513163        41.1753 
 169   0.0000       1.545572        42.0572 
 170   0.0000       1.575304        42.8662 
 171   0.0000       1.579931        42.9921 
 172   0.0000       1.582194        43.0537 
 173   0.0000       1.622512        44.1508 
 174   0.0000       1.633350        44.4457 
 175   0.0000       1.653970        45.0068 
 176   0.0000       1.692760        46.0623 
 177   0.0000       1.728874        47.0451 
 178   0.0000       1.745721        47.5035 
 179   0.0000       1.759299        47.8730 
 180   0.0000       1.782457        48.5031 
 181   0.0000       1.800683        48.9991 
 182   0.0000       1.849084        50.3161 
 183   0.0000       1.883279        51.2466 
 184   0.0000       1.893877        51.5350 
 185   0.0000       1.928224        52.4696 
 186   0.0000       1.991907        54.2025 
 187   0.0000       2.023394        55.0594 
 188   0.0000       2.074471        56.4492 
 189   0.0000       2.105870        57.3036 
 190   0.0000       2.167721        58.9867 
 191   0.0000       2.200766        59.8859 
 192   0.0000       2.243384        61.0456 
 193   0.0000       2.272970        61.8507 
 194   0.0000       2.304519        62.7092 
 195   0.0000       2.315452        63.0066 
 196   0.0000       2.373960        64.5987 
 197   0.0000       2.375333        64.6361 
 198   0.0000       2.400187        65.3124 
 199   0.0000       2.400928        65.3326 
 200   0.0000       2.419147        65.8283 
 201   0.0000       2.423977        65.9598 
 202   0.0000       2.483886        67.5900 
 203   0.0000       2.517294        68.4991 
 204   0.0000       2.584802        70.3360 
 205   0.0000       2.637529        71.7708 
 206   0.0000       2.662695        72.4556 
 207   0.0000       2.777646        75.5836 
 208   0.0000       2.831887        77.0596 
 209   0.0000       2.846096        77.4462 
 210   0.0000       2.880127        78.3722 
 211   0.0000       2.912673        79.2579 
 212   0.0000       2.932856        79.8071 
 213   0.0000       2.989354        81.3445 
 214   0.0000       3.160927        86.0132 
 215   0.0000       3.250669        88.4552 
 216   0.0000       3.320293        90.3498 
 217   0.0000       3.358113        91.3789 
 218   0.0000       3.389373        92.2295 
 219   0.0000       3.404204        92.6331 
 220   0.0000       3.421460        93.1026 
 221   0.0000       3.444874        93.7398 
 222   0.0000       3.495507        95.1176 
 223   0.0000       3.524352        95.9025 
 224   0.0000       3.562201        96.9324 
 225   0.0000       3.591733        97.7360 
 226   0.0000       3.593737        97.7906 
 227   0.0000       3.654600        99.4467 
 228   0.0000       3.710213       100.9600 
 229   0.0000       3.723000       101.3080 
 230   0.0000       3.747778       101.9822 
 231   0.0000       3.882992       105.6616 
 232   0.0000       3.923497       106.7638 
 233   0.0000       3.936476       107.1170 
 234   0.0000       3.938377       107.1687 
 235   0.0000       3.955670       107.6393 
 236   0.0000       4.045873       110.0938 
 237   0.0000       4.110410       111.8499 
 238   0.0000       4.113804       111.9423 
 239   0.0000       4.225268       114.9754 
 240   0.0000       4.229189       115.0821 
 241   0.0000       4.265898       116.0810 
 242   0.0000       4.309372       117.2640 
 243   0.0000       4.467644       121.5708 
 244   0.0000       4.505597       122.6035 
 245   0.0000       4.528541       123.2279 
 246   0.0000       4.573173       124.4424 
 247   0.0000       4.622351       125.7806 
 248   0.0000       4.735187       128.8510 
 249   0.0000       4.895669       133.2179 
 250   0.0000       4.930405       134.1631 
 251   0.0000       5.025089       136.7396 
 252   0.0000       5.203766       141.6017 
 253   0.0000       5.244393       142.7072 
 254   0.0000       5.271898       143.4556 
 255   0.0000       5.278267       143.6290 
 256   0.0000       5.368277       146.0782 
 257   0.0000       5.417969       147.4304 
 258   0.0000       5.422737       147.5602 
 259   0.0000       5.492426       149.4565 
 260   0.0000       5.548667       150.9869 
 261   0.0000       5.576118       151.7339 
 262   0.0000       5.589717       152.1039 
 263   0.0000       5.615960       152.8180 
 264   0.0000       5.730173       155.9259 
 265   0.0000       5.797592       157.7605 
 266   0.0000       6.001157       163.2998 
 267   0.0000       6.001581       163.3113 
 268   0.0000       6.071638       165.2177 
 269   0.0000       6.131067       166.8348 
 270   0.0000       6.178448       168.1241 
 271   0.0000       6.199154       168.6876 
 272   0.0000       6.201201       168.7433 
 273   0.0000       6.203972       168.8187 
 274   0.0000       6.303656       171.5312 
 275   0.0000       6.346952       172.7093 
 276   0.0000       6.519759       177.4117 
 277   0.0000       6.547594       178.1691 
 278   0.0000       6.641483       180.7239 
 279   0.0000       6.656938       181.1445 
 280   0.0000       6.858096       186.6183 
 281   0.0000       7.014489       190.8739 
 282   0.0000       7.120378       193.7553 
 283   0.0000       7.131932       194.0697 
 284   0.0000       7.158990       194.8060 
 285   0.0000       7.159830       194.8289 
 286   0.0000       7.281368       198.1361 
 287   0.0000       7.316682       199.0970 
 288   0.0000       7.361688       200.3217 
 289   0.0000       7.393002       201.1738 
 290   0.0000       7.409950       201.6350 
 291   0.0000       7.417792       201.8484 
 292   0.0000       7.443293       202.5423 
 293   0.0000       7.599949       206.8051 
 294   0.0000       8.233304       224.0396 
 295   0.0000       8.297416       225.7842 
 296   0.0000       8.329534       226.6581 
 297   0.0000       8.344653       227.0696 
 298   0.0000       8.347588       227.1494 
 299   0.0000       8.399527       228.5627 
 300   0.0000       8.532086       232.1699 
 301   0.0000       8.766346       238.5444 
 302   0.0000       8.771834       238.6937 
 303   0.0000       8.810231       239.7386 
 304   0.0000       8.862415       241.1586 
 305   0.0000       9.000321       244.9112 
 306   0.0000       9.094529       247.4747 
 307   0.0000       9.122874       248.2460 
 308   0.0000       9.198605       250.3068 
 309   0.0000       9.324145       253.7229 
 310   0.0000       9.394069       255.6256 
 311   0.0000       9.601406       261.2675 
 312   0.0000       9.749859       265.3072 
 313   0.0000       9.992967       271.9224 
 314   0.0000      10.347060       281.5578 
 315   0.0000      10.494141       285.5601 
 316   0.0000      10.645195       289.6705 
 317   0.0000      10.665777       290.2306 
 318   0.0000      10.775479       293.2157 
 319   0.0000      10.892763       296.4072 
 320   0.0000      11.078318       301.4564 
 321   0.0000      11.273352       306.7635 
 322   0.0000      11.478477       312.3452 
 323   0.0000      11.630480       316.4814 
 324   0.0000      11.675949       317.7187 
 325   0.0000      11.705850       318.5324 
 326   0.0000      11.745094       319.6003 
 327   0.0000      11.783367       320.6417 
 328   0.0000      11.893705       323.6442 
 329   0.0000      11.909061       324.0620 
 330   0.0000      11.918507       324.3191 
 331   0.0000      11.970837       325.7430 
 332   0.0000      12.009105       326.7843 
 333   0.0000      12.054632       328.0232 
 334   0.0000      12.057139       328.0914 
 335   0.0000      12.061950       328.2223 
 336   0.0000      12.096405       329.1599 
 337   0.0000      12.284852       334.2878 
 338   0.0000      12.304049       334.8102 
 339   0.0000      12.329226       335.4953 
 340   0.0000      12.414019       337.8026 
 341   0.0000      12.507062       340.3345 
 342   0.0000      12.527336       340.8862 
 343   0.0000      12.553561       341.5998 
 344   0.0000      12.622980       343.4887 
 345   0.0000      12.623186       343.4944 
 346   0.0000      12.666678       344.6778 
 347   0.0000      12.666794       344.6810 
 348   0.0000      12.712500       345.9247 
 349   0.0000      12.720778       346.1500 
 350   0.0000      12.720784       346.1501 
 351   0.0000      12.746197       346.8417 
 352   0.0000      12.826527       349.0275 
 353   0.0000      12.831485       349.1625 
 354   0.0000      13.041716       354.8831 
 355   0.0000      13.068079       355.6005 
 356   0.0000      13.068619       355.6152 
 357   0.0000      13.649060       371.4098 
 358   0.0000      13.679167       372.2291 
 359   0.0000      13.701802       372.8450 
 360   0.0000      13.748609       374.1187 
 361   0.0000      13.775012       374.8371 
 362   0.0000      14.002104       381.0166 
 363   0.0000      14.276929       388.4950 
 364   0.0000      14.322016       389.7219 
 365   0.0000      14.495877       394.4529 
 366   0.0000      14.601383       397.3238 
 367   0.0000      14.677285       399.3892 
 368   0.0000      14.699875       400.0039 
 369   0.0000      14.736041       400.9881 
 370   0.0000      15.038276       409.2123 
 371   0.0000      15.039561       409.2473 
 372   0.0000      15.063300       409.8932 
 373   0.0000      15.394326       418.9009 
 374   0.0000      15.522176       422.3799 
 375   0.0000      15.523292       422.4102 
 376   0.0000      15.611514       424.8109 
 377   0.0000      15.731655       428.0801 
 378   0.0000      16.252722       442.2591 
 379   0.0000      16.652475       453.1369 
 380   0.0000      16.659299       453.3226 
 381   0.0000      16.778931       456.5779 
 382   0.0000      16.779034       456.5807 
 383   0.0000      16.917020       460.3355 
 384   0.0000      16.959475       461.4908 
 385   0.0000      16.965284       461.6489 
 386   0.0000      17.015093       463.0042 
 387   0.0000      17.041681       463.7277 
 388   0.0000      17.138403       466.3596 
 389   0.0000      17.143087       466.4871 
 390   0.0000      17.367907       472.6048 
 391   0.0000      17.424995       474.1582 
 392   0.0000      17.580296       478.3842 
 393   0.0000      17.584139       478.4887 
 394   0.0000      17.632674       479.8095 
 395   0.0000      17.662764       480.6282 
 396   0.0000      17.838809       485.4187 
 397   0.0000      17.839479       485.4369 
 398   0.0000      17.853937       485.8303 
 399   0.0000      18.249511       496.5945 
 400   0.0000      18.277826       497.3649 
 401   0.0000      18.904555       514.4191 
 402   0.0000      18.913311       514.6574 
 403   0.0000      19.623057       533.9705 
 404   0.0000      19.625918       534.0484 
 405   0.0000      19.655628       534.8568 
 406   0.0000      19.686658       535.7012 
 407   0.0000      20.153574       548.4066 
 408   0.0000      20.153744       548.4112 
 409   0.0000      20.302987       552.4724 
 410   0.0000      20.310056       552.6647 
 411   0.0000      20.338012       553.4255 
 412   0.0000      20.338035       553.4261 
 413   0.0000      20.559361       559.4487 
 414   0.0000      20.825546       566.6919 
 415   0.0000      20.908515       568.9496 
 416   0.0000      20.975861       570.7822 
 417   0.0000      21.013111       571.7958 
 418   0.0000      21.420430       582.8795 
 419   0.0000      22.812539       620.7608 
 420   0.0000      22.859359       622.0348 
 421   0.0000      22.946125       624.3958 
 422   0.0000      23.088647       628.2740 
 423   0.0000      23.214707       631.7043 
 424   0.0000      23.454839       638.2386 
 425   0.0000      23.582941       641.7244 
 426   0.0000      23.653537       643.6455 
 427   0.0000      23.842981       648.8005 
 428   0.0000      24.148743       657.1207 
 429   0.0000      24.197619       658.4507 
 430   0.0000      26.545657       722.3441 
 431   0.0000      27.072495       736.6800 
 432   0.0000      28.717737       781.4494 
 433   0.0000      30.382988       826.7631 
 434   0.0000      30.392095       827.0109 
 435   0.0000      30.493828       829.7793 
 436   0.0000      31.055991       845.0765 
 437   0.0000      31.119973       846.8175 
 438   0.0000      31.886707       867.6814 
 439   0.0000      32.441948       882.7903 
 440   0.0000      33.996803       925.1000 
 441   0.0000      34.438022       937.1062 
 442   0.0000      41.135586      1119.3562 
 443   0.0000      41.201287      1121.1440 
 444   0.0000      41.914009      1140.5382 
 445   0.0000      41.984483      1142.4559 
 446   0.0000      42.542332      1157.6357 
 447   0.0000      45.537276      1239.1323 
 448   0.0000      66.486818      1809.1983 
 449   0.0000      66.620631      1812.8395 
 450   0.0000      66.784143      1817.2889 
 451   0.0000      67.015948      1823.5967 
 452   0.0000      68.579739      1866.1496 
 453   0.0000      90.895877      2473.4025 
 454   0.0000      90.999132      2476.2123 
 455   0.0000      91.123899      2479.6073 
 456   0.0000      91.165294      2480.7338 
 457   0.0000      91.313008      2484.7533 
 458   0.0000      91.322851      2485.0211 
 459   0.0000      91.770212      2497.1944 
 460   0.0000      91.814888      2498.4101 
 461   0.0000      93.032637      2531.5468 
 462   0.0000      93.335989      2539.8014 
 463   0.0000      95.275205      2592.5701 
 464   0.0000     143.301828      3899.4410 
 465   0.0000     203.114096      5527.0155 

                 SPIN DOWN ORBITALS
  NO   OCC          E(Eh)            E(eV) 
   0   1.0000     -24.222405      -659.1252 
   1   1.0000     -18.849381      -512.9177 
   2   1.0000      -1.073411       -29.2090 
   3   1.0000      -0.922248       -25.0956 
   4   1.0000      -0.478786       -13.0284 
   5   1.0000      -0.442419       -12.0388 
   6   1.0000      -0.329664        -8.9706 
   7   1.0000      -0.329008        -8.9528 
   8   1.0000      -0.317857        -8.6493 
   9   0.0000      -0.279456        -7.6044 
  10   0.0000      -0.042715        -1.1623 
  11   0.0000       0.010749         0.2925 
  12   0.0000       0.020673         0.5625 
  13   0.0000       0.026430         0.7192 
  14   0.0000       0.031304         0.8518 
  15   0.0000       0.050343         1.3699 
  16   0.0000       0.057712         1.5704 
  17   0.0000       0.062223         1.6932 
  18   0.0000       0.064196         1.7469 
  19   0.0000       0.080808         2.1989 
  20   0.0000       0.083777         2.2797 
  21   0.0000       0.097183         2.6445 
  22   0.0000       0.109659         2.9840 
  23   0.0000       0.116279         3.1641 
  24   0.0000       0.118135         3.2146 
  25   0.0000       0.128913         3.5079 
  26   0.0000       0.141593         3.8530 
  27   0.0000       0.142331         3.8730 
  28   0.0000       0.150899         4.1062 
  29   0.0000       0.158824         4.3218 
  30   0.0000       0.166912         4.5419 
  31   0.0000       0.167101         4.5471 
  32   0.0000       0.191342         5.2067 
  33   0.0000       0.195068         5.3081 
  34   0.0000       0.206839         5.6284 
  35   0.0000       0.211600         5.7579 
  36   0.0000       0.218391         5.9427 
  37   0.0000       0.223640         6.0856 
  38   0.0000       0.227690         6.1958 
  39   0.0000       0.228143         6.2081 
  40   0.0000       0.233434         6.3521 
  41   0.0000       0.248972         6.7749 
  42   0.0000       0.249036         6.7766 
  43   0.0000       0.258139         7.0243 
  44   0.0000       0.269173         7.3246 
  45   0.0000       0.272209         7.4072 
  46   0.0000       0.287200         7.8151 
  47   0.0000       0.295581         8.0432 
  48   0.0000       0.311822         8.4851 
  49   0.0000       0.317300         8.6342 
  50   0.0000       0.317309         8.6344 
  51   0.0000       0.332983         9.0609 
  52   0.0000       0.344525         9.3750 
  53   0.0000       0.361559         9.8385 
  54   0.0000       0.368004        10.0139 
  55   0.0000       0.369406        10.0521 
  56   0.0000       0.370979        10.0949 
  57   0.0000       0.379102        10.3159 
  58   0.0000       0.385765        10.4972 
  59   0.0000       0.391295        10.6477 
  60   0.0000       0.398649        10.8478 
  61   0.0000       0.417977        11.3737 
  62   0.0000       0.417999        11.3743 
  63   0.0000       0.429041        11.6748 
  64   0.0000       0.429578        11.6894 
  65   0.0000       0.446214        12.1421 
  66   0.0000       0.452941        12.3252 
  67   0.0000       0.458974        12.4893 
  68   0.0000       0.467878        12.7316 
  69   0.0000       0.479009        13.0345 
  70   0.0000       0.488223        13.2852 
  71   0.0000       0.493119        13.4184 
  72   0.0000       0.493619        13.4321 
  73   0.0000       0.501605        13.6494 
  74   0.0000       0.502013        13.6605 
  75   0.0000       0.507942        13.8218 
  76   0.0000       0.517871        14.0920 
  77   0.0000       0.521697        14.1961 
  78   0.0000       0.532726        14.4962 
  79   0.0000       0.538422        14.6512 
  80   0.0000       0.541101        14.7241 
  81   0.0000       0.558337        15.1931 
  82   0.0000       0.566806        15.4236 
  83   0.0000       0.574444        15.6314 
  84   0.0000       0.581698        15.8288 
  85   0.0000       0.586558        15.9611 
  86   0.0000       0.594475        16.1765 
  87   0.0000       0.610551        16.6139 
  88   0.0000       0.614401        16.7187 
  89   0.0000       0.622857        16.9488 
  90   0.0000       0.634787        17.2734 
  91   0.0000       0.639372        17.3982 
  92   0.0000       0.653389        17.7796 
  93   0.0000       0.660439        17.9715 
  94   0.0000       0.683582        18.6012 
  95   0.0000       0.685995        18.6669 
  96   0.0000       0.718549        19.5527 
  97   0.0000       0.721712        19.6388 
  98   0.0000       0.729154        19.8413 
  99   0.0000       0.734571        19.9887 
 100   0.0000       0.740189        20.1416 
 101   0.0000       0.745206        20.2781 
 102   0.0000       0.753947        20.5159 
 103   0.0000       0.763908        20.7870 
 104   0.0000       0.765965        20.8430 
 105   0.0000       0.768135        20.9020 
 106   0.0000       0.782691        21.2981 
 107   0.0000       0.791342        21.5335 
 108   0.0000       0.796080        21.6624 
 109   0.0000       0.809588        22.0300 
 110   0.0000       0.817045        22.2329 
 111   0.0000       0.841549        22.8997 
 112   0.0000       0.854555        23.2536 
 113   0.0000       0.861159        23.4333 
 114   0.0000       0.863458        23.4959 
 115   0.0000       0.877732        23.8843 
 116   0.0000       0.886886        24.1334 
 117   0.0000       0.910874        24.7861 
 118   0.0000       0.918337        24.9892 
 119   0.0000       0.922217        25.0948 
 120   0.0000       0.946141        25.7458 
 121   0.0000       0.947859        25.7926 
 122   0.0000       0.954733        25.9796 
 123   0.0000       0.968626        26.3577 
 124   0.0000       0.978727        26.6325 
 125   0.0000       0.981409        26.7055 
 126   0.0000       0.987398        26.8685 
 127   0.0000       1.003488        27.3063 
 128   0.0000       1.004146        27.3242 
 129   0.0000       1.022083        27.8123 
 130   0.0000       1.030493        28.0411 
 131   0.0000       1.041626        28.3441 
 132   0.0000       1.045536        28.4505 
 133   0.0000       1.048359        28.5273 
 134   0.0000       1.056676        28.7536 
 135   0.0000       1.066156        29.0116 
 136   0.0000       1.075261        29.2593 
 137   0.0000       1.081076        29.4176 
 138   0.0000       1.087385        29.5892 
 139   0.0000       1.105968        30.0949 
 140   0.0000       1.107335        30.1321 
 141   0.0000       1.129517        30.7357 
 142   0.0000       1.143320        31.1113 
 143   0.0000       1.168541        31.7976 
 144   0.0000       1.181902        32.1612 
 145   0.0000       1.186507        32.2865 
 146   0.0000       1.193719        32.4827 
 147   0.0000       1.204200        32.7680 
 148   0.0000       1.205271        32.7971 
 149   0.0000       1.218832        33.1661 
 150   0.0000       1.218991        33.1704 
 151   0.0000       1.239513        33.7289 
 152   0.0000       1.264248        34.4019 
 153   0.0000       1.292417        35.1685 
 154   0.0000       1.330530        36.2056 
 155   0.0000       1.330585        36.2070 
 156   0.0000       1.346807        36.6485 
 157   0.0000       1.353953        36.8429 
 158   0.0000       1.356145        36.9026 
 159   0.0000       1.371994        37.3339 
 160   0.0000       1.389238        37.8031 
 161   0.0000       1.390840        37.8467 
 162   0.0000       1.417341        38.5678 
 163   0.0000       1.437902        39.1273 
 164   0.0000       1.462958        39.8091 
 165   0.0000       1.466361        39.9017 
 166   0.0000       1.486655        40.4539 
 167   0.0000       1.496118        40.7114 
 168   0.0000       1.514355        41.2077 
 169   0.0000       1.550052        42.1790 
 170   0.0000       1.579722        42.9864 
 171   0.0000       1.586917        43.1822 
 172   0.0000       1.588165        43.2162 
 173   0.0000       1.635467        44.5033 
 174   0.0000       1.636204        44.5234 
 175   0.0000       1.655312        45.0433 
 176   0.0000       1.694295        46.1041 
 177   0.0000       1.741487        47.3883 
 178   0.0000       1.751944        47.6728 
 179   0.0000       1.764963        48.0271 
 180   0.0000       1.798337        48.9352 
 181   0.0000       1.815127        49.3921 
 182   0.0000       1.857509        50.5454 
 183   0.0000       1.921328        52.2820 
 184   0.0000       1.922673        52.3186 
 185   0.0000       1.931315        52.5538 
 186   0.0000       1.996100        54.3166 
 187   0.0000       2.029929        55.2372 
 188   0.0000       2.107685        57.3530 
 189   0.0000       2.146113        58.3987 
 190   0.0000       2.176953        59.2379 
 191   0.0000       2.225776        60.5664 
 192   0.0000       2.258807        61.4653 
 193   0.0000       2.286604        62.2217 
 194   0.0000       2.309063        62.8328 
 195   0.0000       2.317375        63.0590 
 196   0.0000       2.389544        65.0228 
 197   0.0000       2.390865        65.0587 
 198   0.0000       2.401568        65.3500 
 199   0.0000       2.404078        65.4183 
 200   0.0000       2.422422        65.9175 
 201   0.0000       2.429835        66.1192 
 202   0.0000       2.487731        67.6946 
 203   0.0000       2.524145        68.6855 
 204   0.0000       2.586637        70.3860 
 205   0.0000       2.664651        72.5088 
 206   0.0000       2.669862        72.6506 
 207   0.0000       2.788841        75.8882 
 208   0.0000       2.833327        77.0987 
 209   0.0000       2.849940        77.5508 
 210   0.0000       2.885000        78.5048 
 211   0.0000       2.916528        79.3628 
 212   0.0000       2.937570        79.9353 
 213   0.0000       3.005283        81.7779 
 214   0.0000       3.168345        86.2151 
 215   0.0000       3.255108        88.5760 
 216   0.0000       3.328257        90.5665 
 217   0.0000       3.359243        91.4097 
 218   0.0000       3.394319        92.3641 
 219   0.0000       3.408472        92.7492 
 220   0.0000       3.434415        93.4552 
 221   0.0000       3.445167        93.7478 
 222   0.0000       3.509218        95.4907 
 223   0.0000       3.528130        96.0053 
 224   0.0000       3.565308        97.0170 
 225   0.0000       3.593653        97.7883 
 226   0.0000       3.596941        97.8777 
 227   0.0000       3.661808        99.6429 
 228   0.0000       3.719161       101.2035 
 229   0.0000       3.728703       101.4632 
 230   0.0000       3.752139       102.1009 
 231   0.0000       3.886818       105.7657 
 232   0.0000       3.929791       106.9350 
 233   0.0000       3.940641       107.2303 
 234   0.0000       3.945750       107.3693 
 235   0.0000       3.971128       108.0599 
 236   0.0000       4.073785       110.8533 
 237   0.0000       4.129883       112.3798 
 238   0.0000       4.161850       113.2497 
 239   0.0000       4.250133       115.6520 
 240   0.0000       4.258464       115.8787 
 241   0.0000       4.276156       116.3601 
 242   0.0000       4.345054       118.2349 
 243   0.0000       4.477676       121.8438 
 244   0.0000       4.525925       123.1567 
 245   0.0000       4.577164       124.5510 
 246   0.0000       4.590621       124.9171 
 247   0.0000       4.656408       126.7073 
 248   0.0000       4.743820       129.0859 
 249   0.0000       4.908144       133.5574 
 250   0.0000       4.947937       134.6402 
 251   0.0000       5.053027       137.4999 
 252   0.0000       5.217797       141.9835 
 253   0.0000       5.247968       142.8045 
 254   0.0000       5.275038       143.5411 
 255   0.0000       5.318536       144.7247 
 256   0.0000       5.417668       147.4222 
 257   0.0000       5.446920       148.2182 
 258   0.0000       5.454579       148.4266 
 259   0.0000       5.518952       150.1783 
 260   0.0000       5.556427       151.1981 
 261   0.0000       5.603262       152.4725 
 262   0.0000       5.629412       153.1841 
 263   0.0000       5.634161       153.3133 
 264   0.0000       5.744807       156.3241 
 265   0.0000       5.804501       157.9485 
 266   0.0000       6.020908       163.8372 
 267   0.0000       6.043647       164.4560 
 268   0.0000       6.105056       166.1270 
 269   0.0000       6.160539       167.6368 
 270   0.0000       6.202417       168.7764 
 271   0.0000       6.202719       168.7846 
 272   0.0000       6.211749       169.0303 
 273   0.0000       6.223989       169.3634 
 274   0.0000       6.313912       171.8103 
 275   0.0000       6.352334       172.8558 
 276   0.0000       6.522220       177.4786 
 277   0.0000       6.551663       178.2798 
 278   0.0000       6.665042       181.3650 
 279   0.0000       6.666449       181.4033 
 280   0.0000       6.872066       186.9984 
 281   0.0000       7.043583       191.6656 
 282   0.0000       7.153280       194.6507 
 283   0.0000       7.156349       194.7342 
 284   0.0000       7.159813       194.8284 
 285   0.0000       7.161686       194.8794 
 286   0.0000       7.314756       199.0446 
 287   0.0000       7.322662       199.2598 
 288   0.0000       7.392187       201.1516 
 289   0.0000       7.393618       201.1906 
 290   0.0000       7.412351       201.7003 
 291   0.0000       7.435732       202.3366 
 292   0.0000       7.443536       202.5489 
 293   0.0000       7.608596       207.0404 
 294   0.0000       8.238261       224.1745 
 295   0.0000       8.300526       225.8688 
 296   0.0000       8.335483       226.8200 
 297   0.0000       8.344960       227.0779 
 298   0.0000       8.348154       227.1648 
 299   0.0000       8.400464       228.5882 
 300   0.0000       8.529749       232.1063 
 301   0.0000       8.767875       238.5860 
 302   0.0000       8.773117       238.7286 
 303   0.0000       8.811817       239.7817 
 304   0.0000       8.866601       241.2725 
 305   0.0000       9.001685       244.9483 
 306   0.0000       9.096087       247.5171 
 307   0.0000       9.122979       248.2489 
 308   0.0000       9.267286       252.1757 
 309   0.0000       9.353402       254.5190 
 310   0.0000       9.482954       258.0443 
 311   0.0000       9.671249       263.1681 
 312   0.0000       9.779512       266.1140 
 313   0.0000      10.006081       272.2793 
 314   0.0000      10.405911       283.1592 
 315   0.0000      10.498691       285.6839 
 316   0.0000      10.652674       289.8740 
 317   0.0000      10.671629       290.3898 
 318   0.0000      10.779145       293.3154 
 319   0.0000      10.938053       297.6396 
 320   0.0000      11.207124       304.9613 
 321   0.0000      11.292370       307.2810 
 322   0.0000      11.490930       312.6841 
 323   0.0000      11.650131       317.0162 
 324   0.0000      11.688935       318.0721 
 325   0.0000      11.740574       319.4773 
 326   0.0000      11.773903       320.3842 
 327   0.0000      11.824684       321.7660 
 328   0.0000      11.926870       324.5466 
 329   0.0000      11.976378       325.8938 
 330   0.0000      11.977988       325.9376 
 331   0.0000      12.030205       327.3585 
 332   0.0000      12.039969       327.6242 
 333   0.0000      12.055168       328.0378 
 334   0.0000      12.057595       328.1038 
 335   0.0000      12.086783       328.8981 
 336   0.0000      12.103397       329.3502 
 337   0.0000      12.306700       334.8823 
 338   0.0000      12.327330       335.4437 
 339   0.0000      12.331416       335.5549 
 340   0.0000      12.469241       339.3053 
 341   0.0000      12.536078       341.1240 
 342   0.0000      12.563929       341.8819 
 343   0.0000      12.570702       342.0662 
 344   0.0000      12.630238       343.6862 
 345   0.0000      12.641672       343.9974 
 346   0.0000      12.667405       344.6976 
 347   0.0000      12.667478       344.6996 
 348   0.0000      12.721695       346.1749 
 349   0.0000      12.721704       346.1752 
 350   0.0000      12.775185       347.6304 
 351   0.0000      12.788260       347.9862 
 352   0.0000      12.889423       350.7390 
 353   0.0000      12.910077       351.3011 
 354   0.0000      13.068155       355.6026 
 355   0.0000      13.068594       355.6145 
 356   0.0000      13.105191       356.6104 
 357   0.0000      13.680962       372.2779 
 358   0.0000      13.704158       372.9091 
 359   0.0000      13.716044       373.2325 
 360   0.0000      13.770033       374.7016 
 361   0.0000      13.781379       375.0104 
 362   0.0000      14.013282       381.3208 
 363   0.0000      14.298136       389.0721 
 364   0.0000      14.344956       390.3461 
 365   0.0000      14.498433       394.5224 
 366   0.0000      14.603501       397.3815 
 367   0.0000      14.677539       399.3962 
 368   0.0000      14.700296       400.0154 
 369   0.0000      14.736566       401.0024 
 370   0.0000      15.039599       409.2483 
 371   0.0000      15.040880       409.2832 
 372   0.0000      15.065645       409.9570 
 373   0.0000      15.411836       419.3774 
 374   0.0000      15.522778       422.3963 
 375   0.0000      15.523925       422.4275 
 376   0.0000      15.615344       424.9151 
 377   0.0000      15.732945       428.1152 
 378   0.0000      16.254230       442.3001 
 379   0.0000      16.656975       453.2593 
 380   0.0000      16.661815       453.3910 
 381   0.0000      16.778627       456.5696 
 382   0.0000      16.778726       456.5724 
 383   0.0000      16.997787       462.5333 
 384   0.0000      17.011494       462.9063 
 385   0.0000      17.024814       463.2687 
 386   0.0000      17.043467       463.7763 
 387   0.0000      17.071719       464.5451 
 388   0.0000      17.156589       466.8545 
 389   0.0000      17.229617       468.8417 
 390   0.0000      17.432416       474.3601 
 391   0.0000      17.465161       475.2512 
 392   0.0000      17.602930       479.0001 
 393   0.0000      17.632531       479.8056 
 394   0.0000      17.656919       480.4692 
 395   0.0000      17.723965       482.2936 
 396   0.0000      17.838599       485.4130 
 397   0.0000      17.839361       485.4337 
 398   0.0000      17.903362       487.1752 
 399   0.0000      18.250805       496.6297 
 400   0.0000      18.278536       497.3843 
 401   0.0000      18.906116       514.4616 
 402   0.0000      18.940690       515.4024 
 403   0.0000      19.629452       534.1445 
 404   0.0000      19.631769       534.2076 
 405   0.0000      19.655915       534.8646 
 406   0.0000      19.688302       535.7459 
 407   0.0000      20.154924       548.4434 
 408   0.0000      20.155094       548.4480 
 409   0.0000      20.302801       552.4673 
 410   0.0000      20.309901       552.6605 
 411   0.0000      20.338918       553.4501 
 412   0.0000      20.338973       553.4516 
 413   0.0000      20.579337       559.9922 
 414   0.0000      20.864273       567.7457 
 415   0.0000      20.907582       568.9242 
 416   0.0000      20.976631       570.8031 
 417   0.0000      21.013086       571.7951 
 418   0.0000      21.420479       582.8809 
 419   0.0000      22.826814       621.1492 
 420   0.0000      22.863079       622.1360 
 421   0.0000      23.034115       626.7901 
 422   0.0000      23.132497       629.4673 
 423   0.0000      23.266144       633.1040 
 424   0.0000      23.483782       639.0262 
 425   0.0000      23.644570       643.4014 
 426   0.0000      23.652615       643.6204 
 427   0.0000      23.862581       649.3338 
 428   0.0000      24.148582       657.1163 
 429   0.0000      24.197292       658.4418 
 430   0.0000      26.557402       722.6636 
 431   0.0000      27.101992       737.4827 
 432   0.0000      28.717509       781.4432 
 433   0.0000      30.384471       826.8035 
 434   0.0000      30.395056       827.0915 
 435   0.0000      30.532942       830.8436 
 436   0.0000      31.058044       845.1323 
 437   0.0000      31.120007       846.8184 
 438   0.0000      32.006980       870.9542 
 439   0.0000      32.466030       883.4456 
 440   0.0000      34.028317       925.9576 
 441   0.0000      34.438135       937.1093 
 442   0.0000      41.131676      1119.2498 
 443   0.0000      41.197726      1121.0471 
 444   0.0000      41.915483      1140.5783 
 445   0.0000      41.984747      1142.4630 
 446   0.0000      42.542589      1157.6427 
 447   0.0000      45.537653      1239.1425 
 448   0.0000      66.556799      1811.1026 
 449   0.0000      66.690088      1814.7295 
 450   0.0000      66.858314      1819.3072 
 451   0.0000      67.037519      1824.1836 
 452   0.0000      68.612988      1867.0543 
 453   0.0000      90.885360      2473.1164 
 454   0.0000      90.987370      2475.8922 
 455   0.0000      91.123658      2479.6008 
 456   0.0000      91.164876      2480.7224 
 457   0.0000      91.313915      2484.7779 
 458   0.0000      91.323765      2485.0460 
 459   0.0000      91.770972      2497.2151 
 460   0.0000      91.814833      2498.4086 
 461   0.0000      93.032581      2531.5452 
 462   0.0000      93.325278      2539.5099 
 463   0.0000      95.275033      2592.5654 
 464   0.0000     143.327689      3900.1447 
 465   0.0000     203.114407      5527.0240 

                    ********************************
                    * MULLIKEN POPULATION ANALYSIS *
                    ********************************

--------------------------------------------
MULLIKEN ATOMIC CHARGES AND SPIN POPULATIONS
--------------------------------------------
   0 H :    0.278769   -0.016301
   1 F :   -0.302963    0.015867
   2 O :   -0.194303    0.993605
   3 H :    0.218497    0.006829
Sum of atomic charges         :   -0.0000000
Sum of atomic spin populations:    1.0000000

-----------------------------------------------------
MULLIKEN REDUCED ORBITAL CHARGES AND SPIN POPULATIONS
-----------------------------------------------------
CHARGE
  0 H s       :     0.621318  s :     0.621318
      pz      :     0.027260  p :     0.097563
      px      :     0.033200
      py      :     0.037103
      dz2     :    -0.000799  d :    -0.002300
      dxz     :    -0.001855
      dyz     :     0.000407
      dx2y2   :    -0.000013
      dxy     :    -0.000040
      f0      :     0.001836  f :     0.006272
      f+1     :     0.002252
      f-1     :     0.002325
      f+2     :    -0.000040
      f-2     :    -0.000091
      f+3     :    -0.000011
      f-3     :     0.000001
      g0      :    -0.000432  g :    -0.001622
      g+1     :    -0.000702
      g-1     :    -0.000346
      g+2     :    -0.000032
      g-2     :    -0.000094
      g+3     :    -0.000016
      g-3     :    -0.000000
      g+4     :    -0.000001
      g-4     :     0.000000
  1 F s       :     3.888445  s :     3.888445
      pz      :     1.476954  p :     5.409367
      px      :     1.977318
      py      :     1.955094
      dz2     :     0.001140  d :     0.007022
      dxz     :     0.002685
      dyz     :     0.003229
      dx2y2   :    -0.000023
      dxy     :    -0.000009
      f0      :    -0.000391  f :    -0.000780
      f+1     :    -0.000491
      f-1     :     0.000174
      f+2     :    -0.000029
      f-2     :    -0.000042
      f+3     :    -0.000001
      f-3     :    -0.000000
      g0      :    -0.000207  g :    -0.000840
      g+1     :    -0.000399
      g-1     :    -0.000196
      g+2     :    -0.000017
      g-2     :    -0.000022
      g+3     :     0.000001
      g-3     :    -0.000000
      g+4     :     0.000000
      g-4     :    -0.000000
      h0      :    -0.000051  h :    -0.000250
      h+1     :    -0.000110
      h-1     :    -0.000074
      h+2     :    -0.000006
      h-2     :    -0.000009
      h+3     :     0.000000
      h-3     :    -0.000000
      h+4     :    -0.000000
      h-4     :    -0.000000
      h+5     :    -0.000000
      h-5     :     0.000000
  2 O s       :     3.896852  s :     3.896852
      pz      :     1.904261  p :     4.295692
      px      :     1.406097
      py      :     0.985334
      dz2     :     0.002824  d :     0.004859
      dxz     :    -0.002342
      dyz     :    -0.001291
      dx2y2   :     0.004522
      dxy     :     0.001146
      f0      :    -0.000733  f :    -0.002207
      f+1     :    -0.001742
      f-1     :     0.000207
      f+2     :     0.000004
      f-2     :     0.000028
      f+3     :     0.000061
      f-3     :    -0.000031
      g0      :    -0.000239  g :    -0.000715
      g+1     :    -0.000367
      g-1     :    -0.000150
      g+2     :     0.000027
      g-2     :    -0.000019
      g+3     :     0.000012
      g-3     :    -0.000000
      g+4     :     0.000021
      g-4     :    -0.000000
      h0      :    -0.000027  h :    -0.000178
      h+1     :    -0.000089
      h-1     :    -0.000063
      h+2     :     0.000003
      h-2     :    -0.000002
      h+3     :     0.000001
      h-3     :     0.000000
      h+4     :     0.000001
      h-4     :    -0.000000
      h+5     :    -0.000001
      h-5     :    -0.000000
  3 H s       :     0.693652  s :     0.693652
      pz      :     0.040509  p :     0.082791
      px      :     0.025222
      py      :     0.017061
      dz2     :    -0.001985  d :     0.005625
      dxz     :     0.004106
      dyz     :    -0.000677
      dx2y2   :     0.002182
      dxy     :     0.001999
      f0      :    -0.000489  f :    -0.000559
      f+1     :     0.000502
      f-1     :    -0.000719
      f+2     :     0.000202
      f-2     :    -0.000165
      f+3     :    -0.000056
      f-3     :     0.000166
      g0      :     0.000127  g :    -0.000006
      g+1     :     0.000031
      g-1     :    -0.000085
      g+2     :     0.000104
      g-2     :    -0.000144
      g+3     :    -0.000005
      g-3     :    -0.000020
      g+4     :    -0.000029
      g-4     :     0.000014

SPIN
  0 H s       :    -0.012180  s :    -0.012180
      pz      :    -0.003470  p :    -0.006147
      px      :     0.000417
      py      :    -0.003094
      dz2     :    -0.000116  d :     0.001255
      dxz     :     0.001504
      dyz     :    -0.000187
      dx2y2   :     0.000116
      dxy     :    -0.000062
      f0      :     0.000107  f :     0.001074
      f+1     :    -0.000038
      f-1     :     0.000772
      f+2     :     0.000330
      f-2     :    -0.000112
      f+3     :     0.000014
      f-3     :     0.000001
      g0      :     0.000021  g :    -0.000303
      g+1     :     0.000085
      g-1     :    -0.000313
      g+2     :    -0.000023
      g-2     :    -0.000091
      g+3     :     0.000018
      g-3     :     0.000000
      g+4     :     0.000001
      g-4     :     0.000000
  1 F s       :     0.003309  s :     0.003309
      pz      :    -0.000106  p :     0.012503
      px      :    -0.000298
      py      :     0.012907
      dz2     :     0.000516  d :     0.001110
      dxz     :    -0.000305
      dyz     :     0.000846
      dx2y2   :     0.000071
      dxy     :    -0.000018
      f0      :    -0.000212  f :    -0.000461
      f+1     :    -0.000144
      f-1     :    -0.000074
      f+2     :     0.000010
      f-2     :    -0.000042
      f+3     :     0.000001
      f-3     :    -0.000000
      g0      :    -0.000150  g :    -0.000451
      g+1     :    -0.000070
      g-1     :    -0.000210
      g+2     :     0.000001
      g-2     :    -0.000022
      g+3     :    -0.000000
      g-3     :    -0.000000
      g+4     :    -0.000000
      g-4     :    -0.000000
      h0      :    -0.000036  h :    -0.000144
      h+1     :    -0.000023
      h-1     :    -0.000074
      h+2     :    -0.000000
      h-2     :    -0.000010
      h+3     :    -0.000000
      h-3     :    -0.000000
      h+4     :    -0.000000
      h-4     :    -0.000000
      h+5     :    -0.000000
      h-5     :     0.000000
  2 O s       :     0.010000  s :     0.010000
      pz      :     0.006149  p :     0.981604
      px      :     0.005993
      py      :     0.969462
      dz2     :     0.000531  d :     0.002220
      dxz     :     0.000442
      dyz     :     0.000047
      dx2y2   :     0.000087
      dxy     :     0.001113
      f0      :     0.000267  f :    -0.000226
      f+1     :     0.000050
      f-1     :     0.000010
      f+2     :    -0.000083
      f-2     :     0.000040
      f+3     :    -0.000475
      f-3     :    -0.000035
      g0      :     0.000016  g :    -0.000002
      g+1     :    -0.000006
      g-1     :    -0.000024
      g+2     :     0.000004
      g-2     :     0.000016
      g+3     :    -0.000001
      g-3     :     0.000000
      g+4     :    -0.000007
      g-4     :    -0.000000
      h0      :     0.000005  h :     0.000009
      h+1     :    -0.000003
      h-1     :    -0.000000
      h+2     :    -0.000001
      h-2     :     0.000005
      h+3     :    -0.000001
      h-3     :    -0.000000
      h+4     :     0.000000
      h-4     :    -0.000000
      h+5     :     0.000004
      h-5     :     0.000000
  3 H s       :    -0.005683  s :    -0.005683
      pz      :    -0.003769  p :     0.008920
      px      :    -0.003647
      py      :     0.016336
      dz2     :     0.000388  d :     0.002927
      dxz     :     0.000465
      dyz     :     0.000271
      dx2y2   :    -0.000299
      dxy     :     0.002102
      f0      :    -0.000197  f :     0.000621
      f+1     :     0.000317
      f-1     :     0.000016
      f+2     :     0.000125
      f-2     :     0.000122
      f+3     :    -0.000002
      f-3     :     0.000240
      g0      :     0.000001  g :     0.000044
      g+1     :    -0.000051
      g-1     :     0.000029
      g+2     :     0.000017
      g-2     :    -0.000004
      g+3     :     0.000011
      g-3     :     0.000014
      g+4     :     0.000002
      g-4     :     0.000023


                     *******************************
                     * LOEWDIN POPULATION ANALYSIS *
                     *******************************

-------------------------------------------
LOEWDIN ATOMIC CHARGES AND SPIN POPULATIONS
-------------------------------------------
   0 H :   -1.213055    0.033864
   1 F :    0.977744    0.021078
   2 O :    0.995768    0.783244
   3 H :   -0.760458    0.161814

----------------------------------------------------
LOEWDIN REDUCED ORBITAL CHARGES AND SPIN POPULATIONS
----------------------------------------------------
CHARGE
  0 H s       :     0.569816  s :     0.569816
      pz      :     0.414314  p :     0.718136
      px      :     0.154157
      py      :     0.149665
      dz2     :     0.266321  d :     0.616404
      dxz     :     0.185063
      dyz     :     0.163934
      dx2y2   :     0.000861
      dxy     :     0.000225
      f0      :     0.075098  f :     0.223928
      f+1     :     0.080403
      f-1     :     0.065413
      f+2     :     0.002450
      f-2     :     0.000513
      f+3     :     0.000049
      f-3     :     0.000003
      g0      :     0.034062  g :     0.084770
      g+1     :     0.030841
      g-1     :     0.014676
      g+2     :     0.004180
      g-2     :     0.000740
      g+3     :     0.000251
      g-3     :     0.000015
      g+4     :     0.000003
      g-4     :     0.000000
  1 F s       :     3.227263  s :     3.227263
      pz      :     1.503283  p :     4.617683
      px      :     1.562443
      py      :     1.551957
      dz2     :     0.047136  d :     0.060942
      dxz     :     0.008147
      dyz     :     0.005550
      dx2y2   :     0.000084
      dxy     :     0.000025
      f0      :     0.033175  f :     0.049570
      f+1     :     0.010355
      f-1     :     0.005526
      f+2     :     0.000394
      f-2     :     0.000104
      f+3     :     0.000014
      f-3     :     0.000002
      g0      :     0.023364  g :     0.036651
      g+1     :     0.008178
      g-1     :     0.004780
      g+2     :     0.000246
      g-2     :     0.000078
      g+3     :     0.000005
      g-3     :     0.000000
      g+4     :     0.000000
      g-4     :     0.000000
      h0      :     0.017136  h :     0.030148
      h+1     :     0.007822
      h-1     :     0.004636
      h+2     :     0.000417
      h-2     :     0.000120
      h+3     :     0.000016
      h-3     :     0.000000
      h+4     :     0.000001
      h-4     :     0.000000
      h+5     :     0.000000
      h-5     :     0.000000
  2 O s       :     3.129334  s :     3.129334
      pz      :     1.462779  p :     3.589791
      px      :     1.351175
      py      :     0.775837
      dz2     :     0.042871  d :     0.086682
      dxz     :     0.017080
      dyz     :     0.008159
      dx2y2   :     0.017442
      dxy     :     0.001130
      f0      :     0.033764  f :     0.067570
      f+1     :     0.015717
      f-1     :     0.013376
      f+2     :     0.001645
      f-2     :     0.000206
      f+3     :     0.002337
      f-3     :     0.000525
      g0      :     0.032573  g :     0.070093
      g+1     :     0.018816
      g-1     :     0.016985
      g+2     :     0.000608
      g-2     :     0.000436
      g+3     :     0.000225
      g-3     :     0.000038
      g+4     :     0.000303
      g-4     :     0.000110
      h0      :     0.025744  h :     0.060762
      h+1     :     0.016894
      h-1     :     0.016360
      h+2     :     0.000675
      h-2     :     0.000697
      h+3     :     0.000090
      h-3     :     0.000019
      h+4     :     0.000088
      h-4     :     0.000025
      h+5     :     0.000118
      h-5     :     0.000053
  3 H s       :     0.642346  s :     0.642346
      pz      :     0.185360  p :     0.552461
      px      :     0.290018
      py      :     0.077083
      dz2     :     0.067150  d :     0.391855
      dxz     :     0.138528
      dyz     :     0.008710
      dx2y2   :     0.106902
      dxy     :     0.070565
      f0      :     0.021843  f :     0.129852
      f+1     :     0.037113
      f-1     :     0.005591
      f+2     :     0.024054
      f-2     :     0.006194
      f+3     :     0.015066
      f-3     :     0.019991
      g0      :     0.009877  g :     0.043943
      g+1     :     0.014240
      g-1     :     0.004540
      g+2     :     0.006728
      g-2     :     0.003435
      g+3     :     0.001783
      g-3     :     0.000899
      g+4     :     0.001370
      g-4     :     0.001071

SPIN
  0 H s       :    -0.001945  s :    -0.001945
      pz      :    -0.003369  p :    -0.002050
      px      :    -0.000429
      py      :     0.001748
      dz2     :    -0.000885  d :     0.016865
      dxz     :    -0.000675
      dyz     :     0.018231
      dx2y2   :    -0.000026
      dxy     :     0.000220
      f0      :    -0.000617  f :     0.008886
      f+1     :    -0.000441
      f-1     :     0.009520
      f+2     :    -0.000061
      f-2     :     0.000487
      f+3     :    -0.000005
      f-3     :     0.000003
      g0      :    -0.000188  g :     0.012109
      g+1     :    -0.000200
      g-1     :     0.011851
      g+2     :    -0.000078
      g-2     :     0.000735
      g+3     :    -0.000026
      g-3     :     0.000015
      g+4     :    -0.000000
      g-4     :     0.000000
  1 F s       :    -0.000411  s :    -0.000411
      pz      :    -0.001824  p :     0.008151
      px      :    -0.000016
      py      :     0.009992
      dz2     :    -0.000999  d :     0.000906
      dxz     :    -0.000174
      dyz     :     0.002058
      dx2y2   :    -0.000003
      dxy     :     0.000023
      f0      :    -0.000454  f :     0.004146
      f+1     :    -0.000175
      f-1     :     0.004680
      f+2     :    -0.000010
      f-2     :     0.000104
      f+3     :    -0.000001
      f-3     :     0.000002
      g0      :    -0.000091  g :     0.003820
      g+1     :    -0.000057
      g-1     :     0.003899
      g+2     :    -0.000005
      g-2     :     0.000075
      g+3     :    -0.000001
      g-3     :     0.000000
      g+4     :     0.000000
      g-4     :     0.000000
      h0      :     0.000060  h :     0.004466
      h+1     :     0.000019
      h-1     :     0.004276
      h+2     :    -0.000005
      h-2     :     0.000119
      h+3     :    -0.000002
      h-3     :     0.000000
      h+4     :    -0.000000
      h-4     :     0.000000
      h+5     :     0.000000
      h-5     :     0.000000
  2 O s       :     0.007291  s :     0.007291
      pz      :     0.008296  p :     0.774433
      px      :     0.009897
      py      :     0.756240
      dz2     :     0.000052  d :     0.000699
      dxz     :    -0.000292
      dyz     :     0.000244
      dx2y2   :    -0.000385
      dxy     :     0.001080
      f0      :     0.000021  f :     0.000281
      f+1     :     0.000017
      f-1     :     0.000147
      f+2     :     0.000026
      f-2     :     0.000064
      f+3     :    -0.000517
      f-3     :     0.000522
      g0      :    -0.000038  g :     0.000266
      g+1     :    -0.000008
      g-1     :     0.000193
      g+2     :     0.000000
      g-2     :     0.000001
      g+3     :    -0.000007
      g-3     :     0.000038
      g+4     :    -0.000022
      g-4     :     0.000108
      h0      :    -0.000024  h :     0.000273
      h+1     :    -0.000003
      h-1     :     0.000188
      h+2     :    -0.000001
      h-2     :     0.000035
      h+3     :    -0.000001
      h-3     :     0.000006
      h+4     :     0.000000
      h-4     :     0.000021
      h+5     :    -0.000000
      h-5     :     0.000051
  3 H s       :    -0.013380  s :    -0.013380
      pz      :    -0.003237  p :     0.071874
      px      :     0.001498
      py      :     0.073613
      dz2     :     0.001156  d :     0.076625
      dxz     :     0.001177
      dyz     :     0.005230
      dx2y2   :     0.000726
      dxy     :     0.068335
      f0      :     0.000383  f :     0.025157
      f+1     :     0.000562
      f-1     :     0.000711
      f+2     :     0.000159
      f-2     :     0.004109
      f+3     :    -0.000180
      f-3     :     0.019414
      g0      :     0.000012  g :     0.001537
      g+1     :     0.000023
      g-1     :     0.000186
      g+2     :    -0.000002
      g-2     :     0.000150
      g+3     :    -0.000033
      g-3     :     0.000289
      g+4     :    -0.000076
      g-4     :     0.000988


                      *****************************
                      * MAYER POPULATION ANALYSIS *
                      *****************************

  NA   - Mulliken gross atomic population
  ZA   - Total nuclear charge
  QA   - Mulliken gross atomic charge
  VA   - Mayer's total valence
  BVA  - Mayer's bonded valence
  FA   - Mayer's free valence

  ATOM       NA         ZA         QA         VA         BVA        FA
  0 H      0.7212     1.0000     0.2788     1.0382     1.0380     0.0002
  1 F      9.3030     9.0000    -0.3030     0.7916     0.7914     0.0002
  2 O      8.1943     8.0000    -0.1943     1.9919     1.0455     0.9464
  3 H      0.7815     1.0000     0.2185     1.0038     1.0039    -0.0001

  Mayer bond orders larger than 0.1
B(  0-H ,  1-F ) :   0.9139 B(  0-H ,  2-O ) :   0.1255 B(  1-F ,  2-O ) :  -0.1038 
B(  2-O ,  3-H ) :   1.0239 

-------
TIMINGS
-------

Total SCF time: 0 days 0 hours 17 min 37 sec 

Total time                  ....    1057.817 sec
Sum of individual times     ....    1056.615 sec  ( 99.9%)

Fock matrix formation       ....    1051.722 sec  ( 99.4%)
  XC integration            ....      17.987 sec  (  1.7% of F)
    Basis function eval.    ....       1.131 sec  (  6.3% of XC)
    Density eval.           ....       3.828 sec  ( 21.3% of XC)
    XC-Functional eval.     ....       0.144 sec  (  0.8% of XC)
    XC-Potential eval.      ....      12.374 sec  ( 68.8% of XC)
Diagonalization             ....       2.189 sec  (  0.2%)
Density matrix formation    ....       0.029 sec  (  0.0%)
Population analysis         ....       0.238 sec  (  0.0%)
Initial guess               ....       0.867 sec  (  0.1%)
Orbital Transformation      ....       0.000 sec  (  0.0%)
Orbital Orthonormalization  ....       0.000 sec  (  0.0%)
DIIS solution               ....       1.208 sec  (  0.1%)
Grid generation             ....       0.362 sec  (  0.0%)

-------------------------   --------------------
FINAL SINGLE POINT ENERGY      -176.103605459519
-------------------------   --------------------


                            ***************************************
                            *     ORCA property calculations      *
                            ***************************************

                                    ---------------------
                                    Active property flags
                                    ---------------------
   (+) Dipole Moment


------------------------------------------------------------------------------
                       ORCA ELECTRIC PROPERTIES CALCULATION
------------------------------------------------------------------------------

Dipole Moment Calculation                       ... on
Quadrupole Moment Calculation                   ... off
Polarizability Calculation                      ... off
GBWName                                         ... fh-oh_pbe_00.gbw
Electron density file                           ... fh-oh_pbe_00.scfp.tmp
The origin for moment calculation is the CENTER OF MASS  = ( 0.194920,  0.000000 -0.679422)

-------------
DIPOLE MOMENT
-------------
                                X             Y             Z
Electronic contribution:     -0.29347       0.00000       1.36764
Nuclear contribution   :      0.93855       0.00000      -2.47969
                        -----------------------------------------
Total Dipole Moment    :      0.64507       0.00000      -1.11205
                        -----------------------------------------
Magnitude (a.u.)       :      1.28560
Magnitude (Debye)      :      3.26774



--------------------
Rotational spectrum 
--------------------
 
Rotational constants in cm-1:    21.356998     0.246472     0.243660 
Rotational constants in MHz : 640266.678212  7389.040107  7304.739279 

 Dipole components along the rotational axes: 
x,y,z [a.u.] :     1.163517     0.546812    -0.000000 
x,y,z [Debye]:     2.957424     1.389885    -0.000000 

 

Timings for individual modules:

Sum of individual times         ...     1078.548 sec (=  17.976 min)
GTO integral calculation        ...        9.814 sec (=   0.164 min)   0.9 %
SCF iterations                  ...     1068.734 sec (=  17.812 min)  99.1 %
                             ****ORCA TERMINATED NORMALLY****
TOTAL RUN TIME: 0 days 0 hours 18 minutes 7 seconds 728 msec
