
                                 *****************
                                 * O   R   C   A *
                                 *****************

           --- An Ab Initio, DFT and Semiempirical electronic structure package ---

                  #######################################################
                  #                        -***-                        #
                  #          Department of theory and spectroscopy      #
                  #               Directorship: Frank Neese             #
                  #        Max Planck Institute fuer Kohlenforschung    #
                  #                Kaiser Wilhelm Platz 1               #
                  #                 D-45470 Muelheim/Ruhr               #
                  #                      Germany                        #
                  #                                                     #
                  #                  All rights reserved                #
                  #                        -***-                        #
                  #######################################################


                         Program Version 4.1.2  - RELEASE  -


 With contributions from (in alphabetic order):
   Daniel Aravena         : Magnetic Properties
   Michael Atanasov       : Ab Initio Ligand Field Theory
   Alexander A. Auer      : GIAO ZORA
   Ute Becker             : Parallelization
   Giovanni Bistoni       : ED, Open-shell LED
   Martin Brehm           : Molecular dynamics
   Dmytro Bykov           : SCF Hessian
   Vijay G. Chilkuri      : MRCI spin determinant printing
   Dipayan Datta          : RHF DLPNO-CCSD density
   Achintya Kumar Dutta   : EOM-CC, STEOM-CC
   Dmitry Ganyushin       : Spin-Orbit,Spin-Spin,Magnetic field MRCI
   Miquel Garcia          : C-PCM Hessian
   Yang Guo               : DLPNO-NEVPT2, CIM, IAO-localization
   Andreas Hansen         : Spin unrestricted coupled pair/coupled cluster methods
   Benjamin Helmich-Paris : CASSCF linear response (MC-RPA)
   Lee Huntington         : MR-EOM, pCC
   Robert Izsak           : Overlap fitted RIJCOSX, COSX-SCS-MP3, EOM
   Christian Kollmar      : KDIIS, OOCD, Brueckner-CCSD(T), CCSD density
   Simone Kossmann        : Meta GGA functionals, TD-DFT gradient, OOMP2, MP2 Hessian
   Martin Krupicka        : AUTO-CI
   Lucas Lang             : DCDCAS
   Dagmar Lenk            : GEPOL surface, SMD
   Dimitrios Liakos       : Extrapolation schemes; parallel MDCI
   Dimitrios Manganas     : ROCIS; embedding schemes
   Dimitrios Pantazis     : SARC Basis sets
   Taras Petrenko         : DFT Hessian,TD-DFT gradient, ASA, ECA, R-Raman, ABS, FL, XAS/XES, NRVS
   Peter Pinski           : DLPNO-MP2, DLPNO-MP2 Gradient
   Christoph Reimann      : Effective Core Potentials
   Marius Retegan         : Local ZFS, SOC
   Christoph Riplinger    : Optimizer, TS searches, QM/MM, DLPNO-CCSD(T), (RO)-DLPNO pert. Triples
   Tobias Risthaus        : Range-separated hybrids, TD-DFT gradient, RPA, STAB
   Michael Roemelt        : Restricted open shell CIS
   Masaaki Saitow         : Open-shell DLPNO
   Barbara Sandhoefer     : DKH picture change effects
   Avijit Sen             : IP-ROCIS
   Kantharuban Sivalingam : CASSCF convergence, NEVPT2, FIC-MRCI
   Bernardo de Souza      : ESD, SOC TD-DFT
   Georgi Stoychev        : AutoAux, RI-MP2 NMR
   Willem Van den Heuvel  : Paramagnetic NMR
   Boris Wezisla          : Elementary symmetry handling
   Frank Wennmohs         : Technical directorship


 We gratefully acknowledge several colleagues who have allowed us to
 interface, adapt or use parts of their codes:
   Stefan Grimme, W. Hujo, H. Kruse,             : VdW corrections, initial TS optimization,
                  C. Bannwarth                     DFT functionals, gCP, sTDA/sTD-DF
   Ed Valeev                                     : LibInt (2-el integral package), F12 methods
   Garnet Chan, S. Sharma, J. Yang, R. Olivares  : DMRG
   Ulf Ekstrom                                   : XCFun DFT Library
   Mihaly Kallay                                 : mrcc  (arbitrary order and MRCC methods)
   Andreas Klamt, Michael Diedenhofen            : otool_cosmo (COSMO solvation model)
   Jiri Pittner, Ondrej Demel                    : Mk-CCSD
   Frank Weinhold                                : gennbo (NPA and NBO analysis)
   Christopher J. Cramer and Donald G. Truhlar   : smd solvation model
   Lars Goerigk                                  : TD-DFT with DH, B97 family of functionals
   V. Asgeirsson, H. Jonsson                     : NEB implementation
   FAccTs GmbH                                   : IRC, NEB, NEB-TS, Multilevel


 Your calculation uses the libint2 library for the computation of 2-el integrals
 For citations please refer to: http://libint.valeyev.net

 This ORCA versions uses:
   CBLAS   interface :  Fast vector & matrix operations
   LAPACKE interface :  Fast linear algebra routines
   SCALAPACK package :  Parallel linear algebra routines


----- Orbital basis set information -----
Your calculation utilizes the basis: aug-pc-4
   H, C-F              : F. Jensen, J. Chem. Phys. 115, 9113 (2001).
                         F. Jensen, J. Chem. Phys. 116, 7372 (2002).
                         F. Jensen, J. Chem. Phys. 117, 9234 (2002).
   Si-Cl               : F. Jensen, T. Helgaker, J. Chem. Phys. 121, 3463 (2004).
   He-B, Ne-Mg, Al, Ar : F. Jensen, J. Phys. Chem. A 111, 11198 (2007).
   K, Ca, Ga-Kr        : F. Jensen, J. Chem. Phys. 136, 094110 (2012).
   Sc-Zn               : F. Jensen, J. Chem. Phys. 138, 014107 (2013).

================================================================================
                                        WARNINGS
                       Please study these warnings very carefully!
================================================================================


INFO   : the flag for use of LIBINT has been found!

================================================================================
                                       INPUT FILE
================================================================================
NAME = fh-oh_pbe_+0001_z.inp
|  1> !uks pbe nori aug-pc-4 grid5 nofinalgrid verytightscf
|  2> 
|  3> %maxcore 6000
|  4> 
|  5> %pal nprocs 4 end
|  6> 
|  7> %scf
|  8> 	efield 0.0, 0.0, 0.001
|  9> 	maxiter 200
| 10> end
| 11> 
| 12> * xyz 0 2
| 13> H 0.000000 0.000000 0.000000
| 14> F 0.000000 0.000000 0.927729
| 15> O 0.169084 0.000000 -1.803099
| 16> H 1.103782 0.000000 -2.068116
| 17> *
| 18> 
| 19>                          ****END OF INPUT****
================================================================================

                       ****************************
                       * Single Point Calculation *
                       ****************************

---------------------------------
CARTESIAN COORDINATES (ANGSTROEM)
---------------------------------
  H      0.000000    0.000000    0.000000
  F      0.000000    0.000000    0.927729
  O      0.169084    0.000000   -1.803099
  H      1.103782    0.000000   -2.068116

----------------------------
CARTESIAN COORDINATES (A.U.)
----------------------------
  NO LB      ZA    FRAG     MASS         X           Y           Z
   0 H     1.0000    0     1.008    0.000000    0.000000    0.000000
   1 F     9.0000    0    18.998    0.000000    0.000000    1.753154
   2 O     8.0000    0    15.999    0.319522    0.000000   -3.407363
   3 H     1.0000    0     1.008    2.085846    0.000000   -3.908173

--------------------------------
INTERNAL COORDINATES (ANGSTROEM)
--------------------------------
 H      0   0   0     0.000000000000     0.00000000     0.00000000
 F      1   0   0     0.927729000000     0.00000000     0.00000000
 O      1   2   0     1.811009498279   174.64280572     0.00000000
 H      3   1   2     0.971542259242   111.18693629     0.00000000

---------------------------
INTERNAL COORDINATES (A.U.)
---------------------------
 H      0   0   0     0.000000000000     0.00000000     0.00000000
 F      1   0   0     1.753153736497     0.00000000     0.00000000
 O      1   2   0     3.422311977678   174.64280572     0.00000000
 H      3   1   2     1.835948797498   111.18693629     0.00000000

---------------------
BASIS SET INFORMATION
---------------------
There are 3 groups of distinct atoms

 Group   1 Type H   : 12s7p4d3f2g contracted to 8s7p4d3f2g pattern {51111111/1111111/1111/111/11}
 Group   2 Type F   : 27s12p7d4f3g2h contracted to 9s8p7d4f3g2h pattern {1191111111/51111111/1111111/1111/111/11}
 Group   3 Type O   : 27s12p7d4f3g2h contracted to 9s8p7d4f3g2h pattern {1191111111/51111111/1111111/1111/111/11}

Atom   0H    basis set group =>   1
Atom   1F    basis set group =>   2
Atom   2O    basis set group =>   3
Atom   3H    basis set group =>   1


           ************************************************************
           *        Program running with 4 parallel MPI-processes     *
           *              working on a common directory               *
           ************************************************************
------------------------------------------------------------------------------
                           ORCA GTO INTEGRAL CALCULATION
------------------------------------------------------------------------------

                         BASIS SET STATISTICS AND STARTUP INFO

 # of primitive gaussian shells          ...  166
 # of primitive gaussian functions       ...  534
 # of contracted shells                  ...  114
 # of contracted basis functions         ...  466
 Highest angular momentum                ...    5
 Maximum contraction depth               ...   11
 Integral package used                   ... LIBINT
 Integral threshhold            Thresh   ...  1.000e-12
 Primitive cut-off              TCut     ...  1.000e-14


------------------------------ INTEGRAL EVALUATION ----------------------------


 * One electron integrals 
 Pre-screening matrix                    ... done
 Shell pair data                         ... done (   0.002 sec)


An Electric Field will be added: 0.000e+00 0.000e+00 1.000e-03 au

  ... done adding electric field perturbation



           ************************************************************
           *        Program running with 4 parallel MPI-processes     *
           *              working on a common directory               *
           ************************************************************
-------------------------------------------------------------------------------
                                 ORCA SCF
-------------------------------------------------------------------------------

------------
SCF SETTINGS
------------
Hamiltonian:
 Density Functional     Method          .... DFT(GTOs)
 Exchange Functional    Exchange        .... PBE
   PBE kappa parameter   XKappa         ....  0.804000
   PBE mue parameter    XMuePBE         ....  0.219520
 Correlation Functional Correlation     .... PBE
   PBE beta parameter  CBetaPBE         ....  0.066725
 LDA part of GGA corr.  LDAOpt          .... PW91-LDA
 Gradients option       PostSCFGGA      .... off
   Density functional embedding theory  .... OFF
   NL short-range parameter             ....  6.400000


General Settings:
 Integral files         IntName         .... fh-oh_pbe_+0001_z
 Hartree-Fock type      HFTyp           .... UHF
 Total Charge           Charge          ....    0
 Multiplicity           Mult            ....    2
 Number of Electrons    NEL             ....   19
 Basis Dimension        Dim             ....  466
 Nuclear Repulsion      ENuc            ....     27.4714926964 Eh

Convergence Acceleration:
 DIIS                   CNVDIIS         .... on
   Start iteration      DIISMaxIt       ....    12
   Startup error        DIISStart       ....  0.200000
   # of expansion vecs  DIISMaxEq       ....     5
   Bias factor          DIISBfac        ....   1.050
   Max. coefficient     DIISMaxC        ....  10.000
 Newton-Raphson         CNVNR           .... off
 SOSCF                  CNVSOSCF        .... off
 Level Shifting         CNVShift        .... on
   Level shift para.    LevelShift      ....    0.2500
   Turn off err/grad.   ShiftErr        ....    0.0010
 Zerner damping         CNVZerner       .... off
 Static damping         CNVDamp         .... on
   Fraction old density DampFac         ....    0.7000
   Max. Damping (<1)    DampMax         ....    0.9800
   Min. Damping (>=0)   DampMin         ....    0.0000
   Turn off err/grad.   DampErr         ....    0.1000
 Fernandez-Rico         CNVRico         .... off

SCF Procedure:
 Maximum # iterations   MaxIter         ....   200
 SCF integral mode      SCFMode         .... Direct
   Integral package                     .... LIBINT
 Reset frequency        DirectResetFreq ....    20
 Integral Threshold     Thresh          ....  1.000e-12 Eh
 Primitive CutOff       TCut            ....  1.000e-14 Eh

Convergence Tolerance:
 Convergence Check Mode ConvCheckMode   .... Total+1el-Energy
 Convergence forced     ConvForced      .... 0
 Energy Change          TolE            ....  1.000e-09 Eh
 1-El. energy change                    ....  1.000e-06 Eh
 DIIS Error             TolErr          ....  1.000e-08


Diagonalization of the overlap matrix:
Smallest eigenvalue                        ... 1.255e-06
Time for diagonalization                   ...    0.197 sec
Threshold for overlap eigenvalues          ... 1.000e-08
Number of eigenvalues below threshold      ... 0
Time for construction of square roots      ...    0.038 sec
Total time needed                          ...    0.236 sec

-------------------
DFT GRID GENERATION
-------------------

General Integration Accuracy     IntAcc      ...  5.010
Radial Grid Type                 RadialGrid  ... Gauss-Chebyshev
Angular Grid (max. acc.)         AngularGrid ... Lebedev-434
Angular grid pruning method      GridPruning ... 3 (G Style)
Weight generation scheme         WeightScheme... Becke
Basis function cutoff            BFCut       ...    1.0000e-12
Integration weight cutoff        WCut        ...    1.0000e-14
Grids for H and He will be reduced by one unit

# of grid points (after initial pruning)     ...  35044 (   0.0 sec)
# of grid points (after weights+screening)   ...  34560 (   0.0 sec)
nearest neighbour list constructed           ...    0.0 sec
Grid point re-assignment to atoms done       ...    0.0 sec
Grid point division into batches done        ...    0.2 sec
Reduced shell lists constructed in    0.3 sec

Total number of grid points                  ...    34560
Total number of batches                      ...      543
Average number of points per batch           ...       63
Average number of grid points per atom       ...     8640
Average number of shells per batch           ...    79.20 (69.48%)
Average number of basis functions per batch  ...   337.18 (72.36%)
Average number of large shells per batch     ...    69.94 (88.31%)
Average number of large basis fcns per batch ...   299.27 (88.76%)
Maximum spatial batch extension              ...  14.02, 13.43, 13.76 au
Average spatial batch extension              ...   0.88,  0.86,  0.72 au

Time for grid setup =    0.370 sec

------------------------------
INITIAL GUESS: MODEL POTENTIAL
------------------------------
Loading Hartree-Fock densities                     ... done
Calculating cut-offs                               ... done
Setting up the integral package                    ... done
Initializing the effective Hamiltonian             ... done
Starting the Coulomb interaction                   ... done (   0.0 sec)
Reading the grid                                   ... done
Mapping shells                                     ... done
Starting the XC term evaluation                    ... done (   0.6 sec)
  promolecular density results
     # of electrons  =     18.999023143
     EX              =    -18.655804200
     EC              =     -0.616543038
     EX+EC           =    -19.272347239
Transforming the Hamiltonian                       ... done (   0.0 sec)
Diagonalizing the Hamiltonian                      ... done (   0.0 sec)
Back transforming the eigenvectors                 ... done (   0.0 sec)
Now organizing SCF variables                       ... done
                      ------------------
                      INITIAL GUESS DONE (   1.3 sec)
                      ------------------
--------------
SCF ITERATIONS
--------------
ITER       Energy         Delta-E        Max-DP      RMS-DP      [F,P]     Damp
               ***  Starting incremental Fock matrix formation  ***
  0   -176.0520162325   0.000000000000 0.00871639  0.00009844  0.2115364 0.7000
  1   -176.0769477904  -0.024931557907 0.00592355  0.00006282  0.0636534 0.7000
                               ***Turning on DIIS***
  2   -176.0844549045  -0.007507114091 0.01095158  0.00009739  0.0160262 0.0000
  3   -176.1005259408  -0.016071036258 0.00253583  0.00003323  0.0350869 0.0000
  4   -176.1023891018  -0.001863161043 0.00106316  0.00001224  0.0093712 0.0000
  5   -176.1024894639  -0.000100362110 0.00044434  0.00000388  0.0035664 0.0000
  6   -176.1025040193  -0.000014555364 0.00022881  0.00000277  0.0003653 0.0000
  7   -176.1025054922  -0.000001472887 0.00005176  0.00000055  0.0003154 0.0000
  8   -176.1025056807  -0.000000188555 0.00002049  0.00000019  0.0000809 0.0000
  9   -176.1025057045  -0.000000023707 0.00000423  0.00000005  0.0000216 0.0000
 10   -176.1025057067  -0.000000002232 0.00000209  0.00000002  0.0000050 0.0000
 11   -176.1025057069  -0.000000000206 0.00000243  0.00000002  0.0000016 0.0000
 12   -176.1025057069  -0.000000000010 0.00000648  0.00000003  0.0000005 0.0000
                 **** Energy Check signals convergence ****

               *****************************************************
               *                     SUCCESS                       *
               *           SCF CONVERGED AFTER  13 CYCLES          *
               *****************************************************


----------------
TOTAL SCF ENERGY
----------------

Total Energy       :         -176.10250571 Eh           -4791.99280 eV

Components:
Nuclear Repulsion  :           27.47149270 Eh             747.53732 eV
Electronic Energy  :         -203.57399840 Eh           -5539.53012 eV
One Electron Energy:         -298.74168150 Eh           -8129.17443 eV
Two Electron Energy:           95.16768310 Eh            2589.64431 eV

Virial components:
Potential Energy   :         -351.72649413 Eh           -9570.96448 eV
Kinetic Energy     :          175.62398843 Eh            4778.97168 eV
Virial Ratio       :            2.00272467


DFT components:
N(Alpha)           :       10.000000973587 electrons
N(Beta)            :        9.000000895005 electrons
N(Total)           :       19.000001868592 electrons
E(X)               :      -18.908149861810 Eh       
E(C)               :       -0.617651150169 Eh       
E(XC)              :      -19.525801011978 Eh       
DFET-embed. en.    :        0.000000000000 Eh       

---------------
SCF CONVERGENCE
---------------

  Last Energy change         ...   -1.2136e-11  Tolerance :   1.0000e-09
  Last MAX-Density change    ...    6.6895e-06  Tolerance :   1.0000e-08
  Last RMS-Density change    ...    5.3328e-08  Tolerance :   1.0000e-09
  Last DIIS Error            ...    9.1911e-08  Tolerance :   1.0000e-08

             **** THE GBW FILE WAS UPDATED (fh-oh_pbe_+0001_z.gbw) ****
             **** DENSITY FILE WAS UPDATED (fh-oh_pbe_+0001_z.scfp.tmp) ****
             **** ENERGY FILE WAS UPDATED (fh-oh_pbe_+0001_z.en.tmp) ****
----------------------
UHF SPIN CONTAMINATION
----------------------

Warning: in a DFT calculation there is little theoretical justification to 
         calculate <S**2> as in Hartree-Fock theory. We will do it anyways
         but you should keep in mind that the values have only limited relevance

Expectation value of <S**2>     :     0.752395
Ideal value S*(S+1) for S=0.5   :     0.750000
Deviation                       :     0.002395

----------------
ORBITAL ENERGIES
----------------
                 SPIN UP ORBITALS
  NO   OCC          E(Eh)            E(eV) 
   0   1.0000     -24.221626      -659.1040 
   1   1.0000     -18.874723      -513.6073 
   2   1.0000      -1.072919       -29.1956 
   3   1.0000      -0.981324       -26.7032 
   4   1.0000      -0.488644       -13.2967 
   5   1.0000      -0.456616       -12.4252 
   6   1.0000      -0.411692       -11.2027 
   7   1.0000      -0.343012        -9.3338 
   8   1.0000      -0.328502        -8.9390 
   9   1.0000      -0.326805        -8.8928 
  10   0.0000      -0.051304        -1.3961 
  11   0.0000       0.010208         0.2778 
  12   0.0000       0.015184         0.4132 
  13   0.0000       0.017529         0.4770 
  14   0.0000       0.026642         0.7250 
  15   0.0000       0.050195         1.3659 
  16   0.0000       0.058408         1.5894 
  17   0.0000       0.062016         1.6876 
  18   0.0000       0.064959         1.7676 
  19   0.0000       0.076264         2.0752 
  20   0.0000       0.077328         2.1042 
  21   0.0000       0.095669         2.6033 
  22   0.0000       0.108662         2.9568 
  23   0.0000       0.112696         3.0666 
  24   0.0000       0.113698         3.0939 
  25   0.0000       0.123292         3.3550 
  26   0.0000       0.135042         3.6747 
  27   0.0000       0.139130         3.7859 
  28   0.0000       0.149056         4.0560 
  29   0.0000       0.157720         4.2918 
  30   0.0000       0.164794         4.4843 
  31   0.0000       0.166229         4.5233 
  32   0.0000       0.186323         5.0701 
  33   0.0000       0.192803         5.2464 
  34   0.0000       0.203060         5.5255 
  35   0.0000       0.207254         5.6397 
  36   0.0000       0.217542         5.9196 
  37   0.0000       0.218838         5.9549 
  38   0.0000       0.220841         6.0094 
  39   0.0000       0.226717         6.1693 
  40   0.0000       0.233128         6.3437 
  41   0.0000       0.245270         6.6741 
  42   0.0000       0.245452         6.6791 
  43   0.0000       0.252312         6.8658 
  44   0.0000       0.268508         7.3065 
  45   0.0000       0.268740         7.3128 
  46   0.0000       0.286158         7.7867 
  47   0.0000       0.291028         7.9193 
  48   0.0000       0.309433         8.4201 
  49   0.0000       0.312830         8.5125 
  50   0.0000       0.316278         8.6064 
  51   0.0000       0.329409         8.9637 
  52   0.0000       0.343359         9.3433 
  53   0.0000       0.358625         9.7587 
  54   0.0000       0.362442         9.8626 
  55   0.0000       0.365024         9.9328 
  56   0.0000       0.368036        10.0148 
  57   0.0000       0.374703        10.1962 
  58   0.0000       0.384388        10.4597 
  59   0.0000       0.389024        10.5859 
  60   0.0000       0.397610        10.8195 
  61   0.0000       0.414816        11.2877 
  62   0.0000       0.415283        11.3004 
  63   0.0000       0.419189        11.4067 
  64   0.0000       0.426334        11.6011 
  65   0.0000       0.444112        12.0849 
  66   0.0000       0.451592        12.2884 
  67   0.0000       0.453351        12.3363 
  68   0.0000       0.460213        12.5230 
  69   0.0000       0.475807        12.9474 
  70   0.0000       0.481594        13.1048 
  71   0.0000       0.484832        13.1930 
  72   0.0000       0.492861        13.4114 
  73   0.0000       0.494758        13.4630 
  74   0.0000       0.500598        13.6220 
  75   0.0000       0.503902        13.7119 
  76   0.0000       0.515882        14.0379 
  77   0.0000       0.519437        14.1346 
  78   0.0000       0.528172        14.3723 
  79   0.0000       0.532563        14.4918 
  80   0.0000       0.538183        14.6447 
  81   0.0000       0.553623        15.0649 
  82   0.0000       0.563536        15.3346 
  83   0.0000       0.571900        15.5622 
  84   0.0000       0.578936        15.7537 
  85   0.0000       0.582981        15.8637 
  86   0.0000       0.589772        16.0485 
  87   0.0000       0.606216        16.4960 
  88   0.0000       0.610339        16.6082 
  89   0.0000       0.617256        16.7964 
  90   0.0000       0.628044        17.0900 
  91   0.0000       0.634836        17.2748 
  92   0.0000       0.651428        17.7263 
  93   0.0000       0.656300        17.8588 
  94   0.0000       0.677558        18.4373 
  95   0.0000       0.680289        18.5116 
  96   0.0000       0.715025        19.4568 
  97   0.0000       0.717112        19.5136 
  98   0.0000       0.728718        19.8294 
  99   0.0000       0.731189        19.8967 
 100   0.0000       0.736865        20.0511 
 101   0.0000       0.744434        20.2571 
 102   0.0000       0.748290        20.3620 
 103   0.0000       0.760551        20.6956 
 104   0.0000       0.761635        20.7251 
 105   0.0000       0.766465        20.8566 
 106   0.0000       0.778222        21.1765 
 107   0.0000       0.783551        21.3215 
 108   0.0000       0.791814        21.5463 
 109   0.0000       0.803337        21.8599 
 110   0.0000       0.812496        22.1091 
 111   0.0000       0.838526        22.8174 
 112   0.0000       0.844918        22.9914 
 113   0.0000       0.854860        23.2619 
 114   0.0000       0.860328        23.4107 
 115   0.0000       0.868643        23.6370 
 116   0.0000       0.880003        23.9461 
 117   0.0000       0.902579        24.5604 
 118   0.0000       0.903824        24.5943 
 119   0.0000       0.913332        24.8530 
 120   0.0000       0.937945        25.5228 
 121   0.0000       0.939969        25.5778 
 122   0.0000       0.951230        25.8843 
 123   0.0000       0.955006        25.9870 
 124   0.0000       0.970808        26.4170 
 125   0.0000       0.976136        26.5620 
 126   0.0000       0.982867        26.7452 
 127   0.0000       0.995361        27.0851 
 128   0.0000       0.996600        27.1189 
 129   0.0000       1.020570        27.7711 
 130   0.0000       1.023328        27.8462 
 131   0.0000       1.036607        28.2075 
 132   0.0000       1.043293        28.3894 
 133   0.0000       1.043823        28.4039 
 134   0.0000       1.052113        28.6294 
 135   0.0000       1.062743        28.9187 
 136   0.0000       1.071243        29.1500 
 137   0.0000       1.078340        29.3431 
 138   0.0000       1.085836        29.5471 
 139   0.0000       1.104340        30.0506 
 140   0.0000       1.105051        30.0700 
 141   0.0000       1.129438        30.7336 
 142   0.0000       1.137928        30.9646 
 143   0.0000       1.160214        31.5710 
 144   0.0000       1.173952        31.9449 
 145   0.0000       1.181829        32.1592 
 146   0.0000       1.190491        32.3949 
 147   0.0000       1.193538        32.4778 
 148   0.0000       1.203994        32.7623 
 149   0.0000       1.216488        33.1023 
 150   0.0000       1.219343        33.1800 
 151   0.0000       1.239139        33.7187 
 152   0.0000       1.256932        34.2029 
 153   0.0000       1.288065        35.0500 
 154   0.0000       1.331116        36.2215 
 155   0.0000       1.331189        36.2235 
 156   0.0000       1.342576        36.5334 
 157   0.0000       1.347391        36.6644 
 158   0.0000       1.353676        36.8354 
 159   0.0000       1.369019        37.2529 
 160   0.0000       1.383653        37.6511 
 161   0.0000       1.384507        37.6744 
 162   0.0000       1.411171        38.3999 
 163   0.0000       1.433665        39.0120 
 164   0.0000       1.461554        39.7709 
 165   0.0000       1.462778        39.8042 
 166   0.0000       1.484788        40.4031 
 167   0.0000       1.493556        40.6417 
 168   0.0000       1.514818        41.2203 
 169   0.0000       1.544401        42.0253 
 170   0.0000       1.575141        42.8618 
 171   0.0000       1.579930        42.9921 
 172   0.0000       1.582013        43.0488 
 173   0.0000       1.620626        44.0995 
 174   0.0000       1.632509        44.4228 
 175   0.0000       1.654787        45.0290 
 176   0.0000       1.691477        46.0274 
 177   0.0000       1.729189        47.0536 
 178   0.0000       1.744597        47.4729 
 179   0.0000       1.759354        47.8744 
 180   0.0000       1.782044        48.4919 
 181   0.0000       1.798852        48.9493 
 182   0.0000       1.848704        50.3058 
 183   0.0000       1.882126        51.2153 
 184   0.0000       1.892004        51.4840 
 185   0.0000       1.928354        52.4732 
 186   0.0000       1.991957        54.2039 
 187   0.0000       2.022659        55.0394 
 188   0.0000       2.072500        56.3956 
 189   0.0000       2.105080        57.2822 
 190   0.0000       2.166405        58.9509 
 191   0.0000       2.199378        59.8481 
 192   0.0000       2.242813        61.0300 
 193   0.0000       2.272204        61.8298 
 194   0.0000       2.305749        62.7426 
 195   0.0000       2.316669        63.0398 
 196   0.0000       2.373142        64.5765 
 197   0.0000       2.374614        64.6165 
 198   0.0000       2.401952        65.3604 
 199   0.0000       2.402015        65.3621 
 200   0.0000       2.420687        65.8702 
 201   0.0000       2.424679        65.9789 
 202   0.0000       2.485053        67.6217 
 203   0.0000       2.517018        68.4915 
 204   0.0000       2.585092        70.3439 
 205   0.0000       2.635402        71.7129 
 206   0.0000       2.661819        72.4318 
 207   0.0000       2.777449        75.5782 
 208   0.0000       2.833331        77.0989 
 209   0.0000       2.846080        77.4458 
 210   0.0000       2.881051        78.3974 
 211   0.0000       2.912614        79.2563 
 212   0.0000       2.932904        79.8084 
 213   0.0000       2.988057        81.3092 
 214   0.0000       3.158786        85.9549 
 215   0.0000       3.248968        88.4089 
 216   0.0000       3.319002        90.3146 
 217   0.0000       3.357961        91.3748 
 218   0.0000       3.389641        92.2368 
 219   0.0000       3.403947        92.6261 
 220   0.0000       3.421425        93.1017 
 221   0.0000       3.444889        93.7402 
 222   0.0000       3.493365        95.0593 
 223   0.0000       3.523503        95.8794 
 224   0.0000       3.561421        96.9112 
 225   0.0000       3.592179        97.7482 
 226   0.0000       3.592974        97.7698 
 227   0.0000       3.653525        99.4175 
 228   0.0000       3.709080       100.9292 
 229   0.0000       3.721454       101.2659 
 230   0.0000       3.747062       101.9627 
 231   0.0000       3.882083       105.6368 
 232   0.0000       3.923323       106.7590 
 233   0.0000       3.936764       107.1248 
 234   0.0000       3.938564       107.1738 
 235   0.0000       3.955041       107.6221 
 236   0.0000       4.044445       110.0550 
 237   0.0000       4.109185       111.8166 
 238   0.0000       4.112015       111.8936 
 239   0.0000       4.223555       114.9288 
 240   0.0000       4.227845       115.0455 
 241   0.0000       4.265438       116.0685 
 242   0.0000       4.307628       117.2165 
 243   0.0000       4.466379       121.5363 
 244   0.0000       4.503627       122.5499 
 245   0.0000       4.527035       123.1869 
 246   0.0000       4.572670       124.4287 
 247   0.0000       4.622103       125.7738 
 248   0.0000       4.734425       128.8302 
 249   0.0000       4.895479       133.2128 
 250   0.0000       4.928799       134.1194 
 251   0.0000       5.024799       136.7317 
 252   0.0000       5.203181       141.5858 
 253   0.0000       5.245499       142.7373 
 254   0.0000       5.273192       143.4909 
 255   0.0000       5.276314       143.5758 
 256   0.0000       5.366773       146.0373 
 257   0.0000       5.416151       147.3810 
 258   0.0000       5.421057       147.5145 
 259   0.0000       5.491115       149.4208 
 260   0.0000       5.549820       151.0183 
 261   0.0000       5.575271       151.7108 
 262   0.0000       5.588573       152.0728 
 263   0.0000       5.615690       152.8107 
 264   0.0000       5.730661       155.9392 
 265   0.0000       5.799075       157.8009 
 266   0.0000       6.000256       163.2753 
 267   0.0000       6.000322       163.2771 
 268   0.0000       6.070667       165.1913 
 269   0.0000       6.130446       166.8179 
 270   0.0000       6.176453       168.0698 
 271   0.0000       6.199284       168.6911 
 272   0.0000       6.202620       168.7819 
 273   0.0000       6.204914       168.8443 
 274   0.0000       6.302752       171.5066 
 275   0.0000       6.347292       172.7186 
 276   0.0000       6.520662       177.4362 
 277   0.0000       6.548703       178.1993 
 278   0.0000       6.641547       180.7257 
 279   0.0000       6.657101       181.1489 
 280   0.0000       6.855980       186.5607 
 281   0.0000       7.013669       190.8516 
 282   0.0000       7.118465       193.7033 
 283   0.0000       7.131161       194.0488 
 284   0.0000       7.160438       194.8454 
 285   0.0000       7.161261       194.8678 
 286   0.0000       7.280392       198.1095 
 287   0.0000       7.317379       199.1160 
 288   0.0000       7.360291       200.2837 
 289   0.0000       7.393678       201.1922 
 290   0.0000       7.411239       201.6701 
 291   0.0000       7.418678       201.8725 
 292   0.0000       7.442809       202.5291 
 293   0.0000       7.598384       206.7625 
 294   0.0000       8.233336       224.0405 
 295   0.0000       8.297245       225.7795 
 296   0.0000       8.328793       226.6380 
 297   0.0000       8.345675       227.0974 
 298   0.0000       8.348456       227.1730 
 299   0.0000       8.400307       228.5840 
 300   0.0000       8.530335       232.1222 
 301   0.0000       8.766660       238.5529 
 302   0.0000       8.772585       238.7142 
 303   0.0000       8.808050       239.6792 
 304   0.0000       8.863168       241.1791 
 305   0.0000       8.998856       244.8713 
 306   0.0000       9.095145       247.4915 
 307   0.0000       9.123555       248.2646 
 308   0.0000       9.196760       250.2566 
 309   0.0000       9.322191       253.6697 
 310   0.0000       9.392342       255.5786 
 311   0.0000       9.599520       261.2162 
 312   0.0000       9.748012       265.2569 
 313   0.0000       9.990960       271.8678 
 314   0.0000      10.345105       281.5046 
 315   0.0000      10.493666       285.5472 
 316   0.0000      10.644736       289.6580 
 317   0.0000      10.666492       290.2500 
 318   0.0000      10.775974       293.2292 
 319   0.0000      10.890900       296.3565 
 320   0.0000      11.076666       301.4114 
 321   0.0000      11.271241       306.7061 
 322   0.0000      11.477902       312.3296 
 323   0.0000      11.628475       316.4269 
 324   0.0000      11.675120       317.6962 
 325   0.0000      11.703935       318.4803 
 326   0.0000      11.743450       319.5555 
 327   0.0000      11.782045       320.6057 
 328   0.0000      11.892817       323.6200 
 329   0.0000      11.907465       324.0186 
 330   0.0000      11.917003       324.2781 
 331   0.0000      11.969585       325.7090 
 332   0.0000      12.007622       326.7440 
 333   0.0000      12.055473       328.0461 
 334   0.0000      12.057980       328.1143 
 335   0.0000      12.062512       328.2376 
 336   0.0000      12.096787       329.1703 
 337   0.0000      12.284097       334.2673 
 338   0.0000      12.305015       334.8365 
 339   0.0000      12.330270       335.5237 
 340   0.0000      12.412274       337.7551 
 341   0.0000      12.505248       340.2851 
 342   0.0000      12.525341       340.8319 
 343   0.0000      12.552068       341.5591 
 344   0.0000      12.621302       343.4431 
 345   0.0000      12.623656       343.5072 
 346   0.0000      12.668049       344.7152 
 347   0.0000      12.668170       344.7184 
 348   0.0000      12.710801       345.8785 
 349   0.0000      12.722142       346.1871 
 350   0.0000      12.722145       346.1872 
 351   0.0000      12.745873       346.8328 
 352   0.0000      12.824833       348.9815 
 353   0.0000      12.830599       349.1384 
 354   0.0000      13.040384       354.8469 
 355   0.0000      13.069069       355.6274 
 356   0.0000      13.069604       355.6420 
 357   0.0000      13.647173       371.3585 
 358   0.0000      13.679932       372.2499 
 359   0.0000      13.702472       372.8632 
 360   0.0000      13.746803       374.0695 
 361   0.0000      13.773254       374.7893 
 362   0.0000      14.002451       381.0261 
 363   0.0000      14.274855       388.4386 
 364   0.0000      14.320048       389.6683 
 365   0.0000      14.496891       394.4805 
 366   0.0000      14.602466       397.3533 
 367   0.0000      14.678457       399.4211 
 368   0.0000      14.700823       400.0297 
 369   0.0000      14.737041       401.0153 
 370   0.0000      15.039481       409.2451 
 371   0.0000      15.040766       409.2800 
 372   0.0000      15.064357       409.9220 
 373   0.0000      15.392429       418.8493 
 374   0.0000      15.523279       422.4099 
 375   0.0000      15.524392       422.4402 
 376   0.0000      15.612428       424.8358 
 377   0.0000      15.732657       428.1073 
 378   0.0000      16.253726       442.2864 
 379   0.0000      16.650280       453.0771 
 380   0.0000      16.657092       453.2625 
 381   0.0000      16.779463       456.5924 
 382   0.0000      16.779567       456.5952 
 383   0.0000      16.915224       460.2867 
 384   0.0000      16.957481       461.4365 
 385   0.0000      16.963498       461.6002 
 386   0.0000      17.013180       462.9522 
 387   0.0000      17.039659       463.6727 
 388   0.0000      17.136737       466.3143 
 389   0.0000      17.143454       466.4971 
 390   0.0000      17.366031       472.5537 
 391   0.0000      17.423453       474.1163 
 392   0.0000      17.578506       478.3355 
 393   0.0000      17.582221       478.4366 
 394   0.0000      17.630576       479.7524 
 395   0.0000      17.661023       480.5809 
 396   0.0000      17.839404       485.4349 
 397   0.0000      17.840067       485.4529 
 398   0.0000      17.852269       485.7849 
 399   0.0000      18.250381       496.6181 
 400   0.0000      18.278744       497.3899 
 401   0.0000      18.904956       514.4300 
 402   0.0000      18.911824       514.6169 
 403   0.0000      19.620907       533.9120 
 404   0.0000      19.624564       534.0115 
 405   0.0000      19.656542       534.8817 
 406   0.0000      19.686813       535.7054 
 407   0.0000      20.154762       548.4389 
 408   0.0000      20.154931       548.4436 
 409   0.0000      20.303666       552.4908 
 410   0.0000      20.310733       552.6831 
 411   0.0000      20.339215       553.4582 
 412   0.0000      20.339225       553.4584 
 413   0.0000      20.557345       559.3938 
 414   0.0000      20.823515       566.6367 
 415   0.0000      20.907153       568.9126 
 416   0.0000      20.977087       570.8155 
 417   0.0000      21.013635       571.8101 
 418   0.0000      21.421394       582.9058 
 419   0.0000      22.812865       620.7696 
 420   0.0000      22.860243       622.0588 
 421   0.0000      22.945035       624.3661 
 422   0.0000      23.088082       628.2587 
 423   0.0000      23.214704       631.7042 
 424   0.0000      23.452891       638.1856 
 425   0.0000      23.581019       641.6721 
 426   0.0000      23.651399       643.5873 
 427   0.0000      23.841211       648.7523 
 428   0.0000      24.149437       657.1396 
 429   0.0000      24.198323       658.4698 
 430   0.0000      26.543697       722.2907 
 431   0.0000      27.070530       736.6266 
 432   0.0000      28.718515       781.4705 
 433   0.0000      30.384076       826.7928 
 434   0.0000      30.393024       827.0362 
 435   0.0000      30.492180       829.7344 
 436   0.0000      31.057010       845.1042 
 437   0.0000      31.121133       846.8491 
 438   0.0000      31.885050       867.6363 
 439   0.0000      32.440220       882.7433 
 440   0.0000      33.995001       925.0510 
 441   0.0000      34.439073       937.1348 
 442   0.0000      41.134906      1119.3377 
 443   0.0000      41.200625      1121.1260 
 444   0.0000      41.915029      1140.5659 
 445   0.0000      41.985641      1142.4874 
 446   0.0000      42.543488      1157.6672 
 447   0.0000      45.538296      1239.1600 
 448   0.0000      66.485116      1809.1520 
 449   0.0000      66.618923      1812.7931 
 450   0.0000      66.782426      1817.2422 
 451   0.0000      67.014181      1823.5486 
 452   0.0000      68.577971      1866.1015 
 453   0.0000      90.893806      2473.3462 
 454   0.0000      90.997093      2476.1568 
 455   0.0000      91.124632      2479.6273 
 456   0.0000      91.165997      2480.7529 
 457   0.0000      91.314047      2484.7816 
 458   0.0000      91.323892      2485.0494 
 459   0.0000      91.771207      2497.2215 
 460   0.0000      91.815973      2498.4396 
 461   0.0000      93.033563      2531.5720 
 462   0.0000      93.333903      2539.7446 
 463   0.0000      95.276033      2592.5927 
 464   0.0000     143.300073      3899.3932 
 465   0.0000     203.115203      5527.0457 

                 SPIN DOWN ORBITALS
  NO   OCC          E(Eh)            E(eV) 
   0   1.0000     -24.221293      -659.0949 
   1   1.0000     -18.851176      -512.9666 
   2   1.0000      -1.072153       -29.1748 
   3   1.0000      -0.924214       -25.1491 
   4   1.0000      -0.478479       -13.0201 
   5   1.0000      -0.443385       -12.0651 
   6   1.0000      -0.328604        -8.9418 
   7   1.0000      -0.327597        -8.9144 
   8   1.0000      -0.319247        -8.6871 
   9   0.0000      -0.281475        -7.6593 
  10   0.0000      -0.045683        -1.2431 
  11   0.0000       0.011036         0.3003 
  12   0.0000       0.015733         0.4281 
  13   0.0000       0.023956         0.6519 
  14   0.0000       0.027974         0.7612 
  15   0.0000       0.050316         1.3692 
  16   0.0000       0.058454         1.5906 
  17   0.0000       0.062964         1.7133 
  18   0.0000       0.065668         1.7869 
  19   0.0000       0.079440         2.1617 
  20   0.0000       0.081064         2.2059 
  21   0.0000       0.096527         2.6266 
  22   0.0000       0.109561         2.9813 
  23   0.0000       0.115208         3.1350 
  24   0.0000       0.119090         3.2406 
  25   0.0000       0.125665         3.4195 
  26   0.0000       0.139310         3.7908 
  27   0.0000       0.140350         3.8191 
  28   0.0000       0.149619         4.0713 
  29   0.0000       0.159614         4.3433 
  30   0.0000       0.166232         4.5234 
  31   0.0000       0.166233         4.5234 
  32   0.0000       0.189363         5.1528 
  33   0.0000       0.193904         5.2764 
  34   0.0000       0.205534         5.5929 
  35   0.0000       0.211229         5.7478 
  36   0.0000       0.217920         5.9299 
  37   0.0000       0.223330         6.0771 
  38   0.0000       0.225633         6.1398 
  39   0.0000       0.227479         6.1900 
  40   0.0000       0.234064         6.3692 
  41   0.0000       0.247029         6.7220 
  42   0.0000       0.248145         6.7524 
  43   0.0000       0.256804         6.9880 
  44   0.0000       0.269400         7.3307 
  45   0.0000       0.271455         7.3867 
  46   0.0000       0.286411         7.7936 
  47   0.0000       0.293119         7.9762 
  48   0.0000       0.310968         8.4619 
  49   0.0000       0.313966         8.5434 
  50   0.0000       0.317053         8.6275 
  51   0.0000       0.331707         9.0262 
  52   0.0000       0.344077         9.3628 
  53   0.0000       0.360791         9.8176 
  54   0.0000       0.367131         9.9902 
  55   0.0000       0.367618        10.0034 
  56   0.0000       0.370211        10.0739 
  57   0.0000       0.377511        10.2726 
  58   0.0000       0.384918        10.4741 
  59   0.0000       0.391266        10.6469 
  60   0.0000       0.398430        10.8418 
  61   0.0000       0.416327        11.3288 
  62   0.0000       0.417182        11.3521 
  63   0.0000       0.427256        11.6262 
  64   0.0000       0.429182        11.6786 
  65   0.0000       0.445474        12.1220 
  66   0.0000       0.452930        12.3248 
  67   0.0000       0.457347        12.4450 
  68   0.0000       0.465078        12.6554 
  69   0.0000       0.478892        13.0313 
  70   0.0000       0.487808        13.2739 
  71   0.0000       0.491762        13.3815 
  72   0.0000       0.493768        13.4361 
  73   0.0000       0.499970        13.6049 
  74   0.0000       0.501963        13.6591 
  75   0.0000       0.507276        13.8037 
  76   0.0000       0.517132        14.0719 
  77   0.0000       0.520872        14.1737 
  78   0.0000       0.531827        14.4717 
  79   0.0000       0.537749        14.6329 
  80   0.0000       0.540574        14.7098 
  81   0.0000       0.557110        15.1597 
  82   0.0000       0.565915        15.3993 
  83   0.0000       0.573446        15.6043 
  84   0.0000       0.580721        15.8022 
  85   0.0000       0.585252        15.9255 
  86   0.0000       0.593160        16.1407 
  87   0.0000       0.609578        16.5875 
  88   0.0000       0.613016        16.6810 
  89   0.0000       0.620577        16.8868 
  90   0.0000       0.632767        17.2185 
  91   0.0000       0.637438        17.3456 
  92   0.0000       0.652263        17.7490 
  93   0.0000       0.658164        17.9096 
  94   0.0000       0.682378        18.5685 
  95   0.0000       0.684830        18.6352 
  96   0.0000       0.717001        19.5106 
  97   0.0000       0.721844        19.6424 
  98   0.0000       0.729684        19.8557 
  99   0.0000       0.733352        19.9555 
 100   0.0000       0.738184        20.0870 
 101   0.0000       0.745570        20.2880 
 102   0.0000       0.752062        20.4647 
 103   0.0000       0.763636        20.7796 
 104   0.0000       0.765402        20.8277 
 105   0.0000       0.767363        20.8810 
 106   0.0000       0.781905        21.2767 
 107   0.0000       0.789217        21.4757 
 108   0.0000       0.794983        21.6326 
 109   0.0000       0.807428        21.9712 
 110   0.0000       0.815564        22.1926 
 111   0.0000       0.840204        22.8631 
 112   0.0000       0.853099        23.2140 
 113   0.0000       0.860717        23.4213 
 114   0.0000       0.862339        23.4654 
 115   0.0000       0.876962        23.8634 
 116   0.0000       0.885710        24.1014 
 117   0.0000       0.909803        24.7570 
 118   0.0000       0.916837        24.9484 
 119   0.0000       0.921005        25.0618 
 120   0.0000       0.945982        25.7415 
 121   0.0000       0.946335        25.7511 
 122   0.0000       0.954572        25.9752 
 123   0.0000       0.967526        26.3277 
 124   0.0000       0.978638        26.6301 
 125   0.0000       0.979718        26.6595 
 126   0.0000       0.986630        26.8476 
 127   0.0000       1.002090        27.2683 
 128   0.0000       1.003146        27.2970 
 129   0.0000       1.022720        27.8296 
 130   0.0000       1.029643        28.0180 
 131   0.0000       1.041919        28.3521 
 132   0.0000       1.046145        28.4670 
 133   0.0000       1.048405        28.5285 
 134   0.0000       1.056920        28.7602 
 135   0.0000       1.067387        29.0451 
 136   0.0000       1.074323        29.2338 
 137   0.0000       1.081101        29.4183 
 138   0.0000       1.088694        29.6249 
 139   0.0000       1.106319        30.1045 
 140   0.0000       1.108024        30.1509 
 141   0.0000       1.131055        30.7776 
 142   0.0000       1.143961        31.1288 
 143   0.0000       1.167361        31.7655 
 144   0.0000       1.180755        32.1300 
 145   0.0000       1.185872        32.2692 
 146   0.0000       1.192800        32.4577 
 147   0.0000       1.203104        32.7381 
 148   0.0000       1.205658        32.8076 
 149   0.0000       1.217796        33.1379 
 150   0.0000       1.220507        33.2117 
 151   0.0000       1.240812        33.7642 
 152   0.0000       1.263420        34.3794 
 153   0.0000       1.291901        35.1544 
 154   0.0000       1.331969        36.2447 
 155   0.0000       1.332012        36.2459 
 156   0.0000       1.345923        36.6244 
 157   0.0000       1.353275        36.8245 
 158   0.0000       1.356494        36.9121 
 159   0.0000       1.372351        37.3436 
 160   0.0000       1.387354        37.7518 
 161   0.0000       1.389656        37.8145 
 162   0.0000       1.416755        38.5519 
 163   0.0000       1.437439        39.1147 
 164   0.0000       1.462886        39.8072 
 165   0.0000       1.467637        39.9364 
 166   0.0000       1.486976        40.4627 
 167   0.0000       1.496933        40.7336 
 168   0.0000       1.515991        41.2522 
 169   0.0000       1.549128        42.1539 
 170   0.0000       1.579925        42.9920 
 171   0.0000       1.586779        43.1785 
 172   0.0000       1.587804        43.2063 
 173   0.0000       1.633167        44.4407 
 174   0.0000       1.635195        44.4959 
 175   0.0000       1.656121        45.0653 
 176   0.0000       1.692994        46.0687 
 177   0.0000       1.741763        47.3958 
 178   0.0000       1.751111        47.6502 
 179   0.0000       1.764706        48.0201 
 180   0.0000       1.798289        48.9339 
 181   0.0000       1.813514        49.3482 
 182   0.0000       1.857047        50.5328 
 183   0.0000       1.919421        52.2301 
 184   0.0000       1.921003        52.2731 
 185   0.0000       1.931190        52.5503 
 186   0.0000       1.996387        54.3245 
 187   0.0000       2.028856        55.2080 
 188   0.0000       2.105988        57.3068 
 189   0.0000       2.144827        58.3637 
 190   0.0000       2.175825        59.2072 
 191   0.0000       2.224535        60.5327 
 192   0.0000       2.258218        61.4492 
 193   0.0000       2.285916        62.2029 
 194   0.0000       2.310122        62.8616 
 195   0.0000       2.318622        63.0929 
 196   0.0000       2.388841        65.0037 
 197   0.0000       2.390588        65.0512 
 198   0.0000       2.403230        65.3952 
 199   0.0000       2.405123        65.4467 
 200   0.0000       2.423703        65.9523 
 201   0.0000       2.430383        66.1341 
 202   0.0000       2.489206        67.7347 
 203   0.0000       2.523405        68.6653 
 204   0.0000       2.586923        70.3937 
 205   0.0000       2.662463        72.4493 
 206   0.0000       2.668987        72.6268 
 207   0.0000       2.788607        75.8819 
 208   0.0000       2.834801        77.1389 
 209   0.0000       2.849887        77.5494 
 210   0.0000       2.885938        78.5304 
 211   0.0000       2.916505        79.3621 
 212   0.0000       2.937834        79.9425 
 213   0.0000       3.003686        81.7344 
 214   0.0000       3.166186        86.1563 
 215   0.0000       3.253418        88.5300 
 216   0.0000       3.327177        90.5371 
 217   0.0000       3.359155        91.4073 
 218   0.0000       3.394605        92.3719 
 219   0.0000       3.408178        92.7412 
 220   0.0000       3.434176        93.4487 
 221   0.0000       3.445149        93.7473 
 222   0.0000       3.507013        95.4307 
 223   0.0000       3.527302        95.9828 
 224   0.0000       3.564454        96.9937 
 225   0.0000       3.594044        97.7989 
 226   0.0000       3.596163        97.8566 
 227   0.0000       3.660967        99.6200 
 228   0.0000       3.717884       101.1688 
 229   0.0000       3.727179       101.4217 
 230   0.0000       3.751347       102.0794 
 231   0.0000       3.885913       105.7411 
 232   0.0000       3.930116       106.9439 
 233   0.0000       3.941015       107.2405 
 234   0.0000       3.945561       107.3642 
 235   0.0000       3.970252       108.0360 
 236   0.0000       4.072430       110.8165 
 237   0.0000       4.128540       112.3433 
 238   0.0000       4.160011       113.1996 
 239   0.0000       4.249435       115.6330 
 240   0.0000       4.256543       115.8264 
 241   0.0000       4.274886       116.3256 
 242   0.0000       4.343270       118.1864 
 243   0.0000       4.476428       121.8098 
 244   0.0000       4.523925       123.1023 
 245   0.0000       4.576602       124.5357 
 246   0.0000       4.589825       124.8955 
 247   0.0000       4.655174       126.6737 
 248   0.0000       4.743012       129.0639 
 249   0.0000       4.908068       133.5553 
 250   0.0000       4.946189       134.5926 
 251   0.0000       5.052816       137.4941 
 252   0.0000       5.217274       141.9693 
 253   0.0000       5.249450       142.8448 
 254   0.0000       5.276461       143.5798 
 255   0.0000       5.316292       144.6637 
 256   0.0000       5.415958       147.3757 
 257   0.0000       5.445212       148.1718 
 258   0.0000       5.452639       148.3739 
 259   0.0000       5.517633       150.1424 
 260   0.0000       5.557686       151.2323 
 261   0.0000       5.602562       152.4535 
 262   0.0000       5.628113       153.1487 
 263   0.0000       5.633789       153.3032 
 264   0.0000       5.745158       156.3337 
 265   0.0000       5.805992       157.9891 
 266   0.0000       6.019475       163.7982 
 267   0.0000       6.043070       164.4403 
 268   0.0000       6.104123       166.1016 
 269   0.0000       6.159738       167.6150 
 270   0.0000       6.203909       168.8169 
 271   0.0000       6.204143       168.8233 
 272   0.0000       6.211443       169.0220 
 273   0.0000       6.221898       169.3064 
 274   0.0000       6.313018       171.7859 
 275   0.0000       6.352590       172.8628 
 276   0.0000       6.523198       177.5053 
 277   0.0000       6.552832       178.3116 
 278   0.0000       6.665128       181.3673 
 279   0.0000       6.666418       181.4024 
 280   0.0000       6.869943       186.9407 
 281   0.0000       7.042747       191.6429 
 282   0.0000       7.151327       194.5975 
 283   0.0000       7.156166       194.7292 
 284   0.0000       7.161340       194.8700 
 285   0.0000       7.162832       194.9106 
 286   0.0000       7.313502       199.0105 
 287   0.0000       7.323362       199.2788 
 288   0.0000       7.392268       201.1538 
 289   0.0000       7.394329       201.2099 
 290   0.0000       7.413607       201.7345 
 291   0.0000       7.435104       202.3195 
 292   0.0000       7.443050       202.5357 
 293   0.0000       7.607000       206.9970 
 294   0.0000       8.238270       224.1747 
 295   0.0000       8.300759       225.8751 
 296   0.0000       8.334474       226.7926 
 297   0.0000       8.346013       227.1066 
 298   0.0000       8.348931       227.1860 
 299   0.0000       8.401232       228.6092 
 300   0.0000       8.528032       232.0595 
 301   0.0000       8.768210       238.5951 
 302   0.0000       8.773901       238.7500 
 303   0.0000       8.809625       239.7221 
 304   0.0000       8.867386       241.2938 
 305   0.0000       9.000214       244.9083 
 306   0.0000       9.096768       247.5357 
 307   0.0000       9.123657       248.2673 
 308   0.0000       9.265234       252.1198 
 309   0.0000       9.351364       254.4635 
 310   0.0000       9.481028       257.9919 
 311   0.0000       9.669134       263.1105 
 312   0.0000       9.777621       266.0626 
 313   0.0000      10.004053       272.2241 
 314   0.0000      10.403844       283.1030 
 315   0.0000      10.498289       285.6730 
 316   0.0000      10.652202       289.8612 
 317   0.0000      10.672426       290.4115 
 318   0.0000      10.779610       293.3281 
 319   0.0000      10.936079       297.5858 
 320   0.0000      11.205152       304.9077 
 321   0.0000      11.290216       307.2224 
 322   0.0000      11.490443       312.6709 
 323   0.0000      11.648093       316.9607 
 324   0.0000      11.688156       318.0509 
 325   0.0000      11.738579       319.4230 
 326   0.0000      11.772187       320.3375 
 327   0.0000      11.823147       321.7242 
 328   0.0000      11.926016       324.5234 
 329   0.0000      11.975015       325.8567 
 330   0.0000      11.976638       325.9009 
 331   0.0000      12.029435       327.3376 
 332   0.0000      12.038373       327.5808 
 333   0.0000      12.056004       328.0606 
 334   0.0000      12.058399       328.1257 
 335   0.0000      12.086435       328.8886 
 336   0.0000      12.103696       329.3583 
 337   0.0000      12.307792       334.9120 
 338   0.0000      12.326543       335.4223 
 339   0.0000      12.332387       335.5813 
 340   0.0000      12.467391       339.2550 
 341   0.0000      12.534154       341.0717 
 342   0.0000      12.562436       341.8413 
 343   0.0000      12.568796       342.0143 
 344   0.0000      12.628355       343.6350 
 345   0.0000      12.642339       344.0155 
 346   0.0000      12.668886       344.7379 
 347   0.0000      12.668959       344.7399 
 348   0.0000      12.723191       346.2156 
 349   0.0000      12.723200       346.2159 
 350   0.0000      12.775403       347.6364 
 351   0.0000      12.786318       347.9334 
 352   0.0000      12.887749       350.6935 
 353   0.0000      12.908159       351.2489 
 354   0.0000      13.069187       355.6307 
 355   0.0000      13.069619       355.6424 
 356   0.0000      13.103744       356.5710 
 357   0.0000      13.681812       372.3010 
 358   0.0000      13.704985       372.9316 
 359   0.0000      13.713977       373.1763 
 360   0.0000      13.768014       374.6467 
 361   0.0000      13.779636       374.9630 
 362   0.0000      14.013609       381.3297 
 363   0.0000      14.296024       389.0146 
 364   0.0000      14.342943       390.2913 
 365   0.0000      14.499466       394.5505 
 366   0.0000      14.604817       397.4173 
 367   0.0000      14.678758       399.4293 
 368   0.0000      14.701302       400.0428 
 369   0.0000      14.737620       401.0310 
 370   0.0000      15.040994       409.2863 
 371   0.0000      15.042275       409.3211 
 372   0.0000      15.066772       409.9877 
 373   0.0000      15.409900       419.3247 
 374   0.0000      15.523992       422.4293 
 375   0.0000      15.525132       422.4603 
 376   0.0000      15.616368       424.9430 
 377   0.0000      15.733961       428.1428 
 378   0.0000      16.255330       442.3300 
 379   0.0000      16.654753       453.1989 
 380   0.0000      16.659590       453.3305 
 381   0.0000      16.779137       456.5835 
 382   0.0000      16.779236       456.5862 
 383   0.0000      16.995793       462.4790 
 384   0.0000      17.009404       462.8494 
 385   0.0000      17.022835       463.2149 
 386   0.0000      17.041411       463.7204 
 387   0.0000      17.069760       464.4918 
 388   0.0000      17.157116       466.8689 
 389   0.0000      17.227735       468.7905 
 390   0.0000      17.430396       474.3052 
 391   0.0000      17.463319       475.2011 
 392   0.0000      17.600993       478.9474 
 393   0.0000      17.630590       479.7527 
 394   0.0000      17.654846       480.4128 
 395   0.0000      17.722095       482.2427 
 396   0.0000      17.839198       485.4293 
 397   0.0000      17.839948       485.4497 
 398   0.0000      17.901616       487.1277 
 399   0.0000      18.251760       496.6556 
 400   0.0000      18.279463       497.4095 
 401   0.0000      18.906987       514.4853 
 402   0.0000      18.938685       515.3478 
 403   0.0000      19.627300       534.0860 
 404   0.0000      19.630569       534.1749 
 405   0.0000      19.656869       534.8906 
 406   0.0000      19.688291       535.7456 
 407   0.0000      20.156304       548.4809 
 408   0.0000      20.156474       548.4855 
 409   0.0000      20.303497       552.4862 
 410   0.0000      20.310595       552.6794 
 411   0.0000      20.340267       553.4868 
 412   0.0000      20.340309       553.4879 
 413   0.0000      20.577274       559.9361 
 414   0.0000      20.862171       567.6885 
 415   0.0000      20.906220       568.8872 
 416   0.0000      20.977962       570.8394 
 417   0.0000      21.013725       571.8125 
 418   0.0000      21.421508       582.9089 
 419   0.0000      22.827613       621.1709 
 420   0.0000      22.864040       622.1622 
 421   0.0000      23.032452       626.7449 
 422   0.0000      23.132818       629.4760 
 423   0.0000      23.265040       633.0739 
 424   0.0000      23.481687       638.9692 
 425   0.0000      23.642452       643.3438 
 426   0.0000      23.650658       643.5671 
 427   0.0000      23.860772       649.2846 
 428   0.0000      24.149286       657.1355 
 429   0.0000      24.197991       658.4608 
 430   0.0000      26.555411       722.6095 
 431   0.0000      27.099968       737.4276 
 432   0.0000      28.718305       781.4648 
 433   0.0000      30.385773       826.8389 
 434   0.0000      30.396262       827.1244 
 435   0.0000      30.531139       830.7945 
 436   0.0000      31.059282       845.1660 
 437   0.0000      31.121199       846.8509 
 438   0.0000      32.005049       870.9017 
 439   0.0000      32.464246       883.3971 
 440   0.0000      34.026456       925.9069 
 441   0.0000      34.439250       937.1396 
 442   0.0000      41.130855      1119.2275 
 443   0.0000      41.197234      1121.0337 
 444   0.0000      41.916714      1140.6118 
 445   0.0000      41.985950      1142.4958 
 446   0.0000      42.543802      1157.6757 
 447   0.0000      45.538761      1239.1727 
 448   0.0000      66.554951      1811.0523 
 449   0.0000      66.688218      1814.6787 
 450   0.0000      66.856453      1819.2566 
 451   0.0000      67.035703      1824.1342 
 452   0.0000      68.611145      1867.0042 
 453   0.0000      90.883315      2473.0607 
 454   0.0000      90.985354      2475.8373 
 455   0.0000      91.124386      2479.6206 
 456   0.0000      91.165575      2480.7414 
 457   0.0000      91.315085      2484.8098 
 458   0.0000      91.324937      2485.0779 
 459   0.0000      91.772097      2497.2457 
 460   0.0000      91.815937      2498.4387 
 461   0.0000      93.033541      2531.5713 
 462   0.0000      93.323217      2539.4538 
 463   0.0000      95.275876      2592.5884 
 464   0.0000     143.325886      3900.0956 
 465   0.0000     203.115567      5527.0556 

                    ********************************
                    * MULLIKEN POPULATION ANALYSIS *
                    ********************************

--------------------------------------------
MULLIKEN ATOMIC CHARGES AND SPIN POPULATIONS
--------------------------------------------
   0 H :    0.277909   -0.016269
   1 F :   -0.299542    0.017563
   2 O :   -0.195885    0.991795
   3 H :    0.217519    0.006911
Sum of atomic charges         :   -0.0000000
Sum of atomic spin populations:    1.0000000

-----------------------------------------------------
MULLIKEN REDUCED ORBITAL CHARGES AND SPIN POPULATIONS
-----------------------------------------------------
CHARGE
  0 H s       :     0.621427  s :     0.621427
      pz      :     0.027424  p :     0.098389
      px      :     0.033491
      py      :     0.037474
      dz2     :    -0.000754  d :    -0.002390
      dxz     :    -0.001916
      dyz     :     0.000326
      dx2y2   :    -0.000008
      dxy     :    -0.000038
      f0      :     0.001813  f :     0.006277
      f+1     :     0.002244
      f-1     :     0.002349
      f+2     :    -0.000030
      f-2     :    -0.000090
      f+3     :    -0.000011
      f-3     :     0.000001
      g0      :    -0.000430  g :    -0.001612
      g+1     :    -0.000700
      g-1     :    -0.000340
      g+2     :    -0.000031
      g-2     :    -0.000094
      g+3     :    -0.000015
      g-3     :    -0.000000
      g+4     :    -0.000001
      g-4     :     0.000000
  1 F s       :     3.888632  s :     3.888632
      pz      :     1.475335  p :     5.405587
      px      :     1.977086
      py      :     1.953166
      dz2     :     0.001157  d :     0.007173
      dxz     :     0.002732
      dyz     :     0.003313
      dx2y2   :    -0.000021
      dxy     :    -0.000009
      f0      :    -0.000385  f :    -0.000769
      f+1     :    -0.000495
      f-1     :     0.000183
      f+2     :    -0.000029
      f-2     :    -0.000042
      f+3     :    -0.000001
      f-3     :    -0.000000
      g0      :    -0.000202  g :    -0.000832
      g+1     :    -0.000397
      g-1     :    -0.000194
      g+2     :    -0.000017
      g-2     :    -0.000022
      g+3     :     0.000001
      g-3     :    -0.000000
      g+4     :     0.000000
      g-4     :    -0.000000
      h0      :    -0.000050  h :    -0.000248
      h+1     :    -0.000109
      h-1     :    -0.000074
      h+2     :    -0.000006
      h-2     :    -0.000009
      h+3     :     0.000000
      h-3     :    -0.000000
      h+4     :    -0.000000
      h-4     :    -0.000000
      h+5     :    -0.000000
      h-5     :     0.000000
  2 O s       :     3.897086  s :     3.897086
      pz      :     1.905172  p :     4.297204
      px      :     1.405191
      py      :     0.986840
      dz2     :     0.002822  d :     0.004743
      dxz     :    -0.002373
      dyz     :    -0.001353
      dx2y2   :     0.004502
      dxy     :     0.001145
      f0      :    -0.000740  f :    -0.002240
      f+1     :    -0.001768
      f-1     :     0.000209
      f+2     :     0.000003
      f-2     :     0.000026
      f+3     :     0.000061
      f-3     :    -0.000031
      g0      :    -0.000239  g :    -0.000728
      g+1     :    -0.000376
      g-1     :    -0.000152
      g+2     :     0.000027
      g-2     :    -0.000020
      g+3     :     0.000012
      g-3     :    -0.000000
      g+4     :     0.000021
      g-4     :    -0.000000
      h0      :    -0.000027  h :    -0.000179
      h+1     :    -0.000090
      h-1     :    -0.000064
      h+2     :     0.000003
      h-2     :    -0.000002
      h+3     :     0.000001
      h-3     :     0.000000
      h+4     :     0.000001
      h-4     :    -0.000000
      h+5     :    -0.000001
      h-5     :    -0.000000
  3 H s       :     0.694295  s :     0.694295
      pz      :     0.040845  p :     0.083087
      px      :     0.025072
      py      :     0.017170
      dz2     :    -0.001999  d :     0.005643
      dxz     :     0.004158
      dyz     :    -0.000693
      dx2y2   :     0.002183
      dxy     :     0.001995
      f0      :    -0.000473  f :    -0.000539
      f+1     :     0.000510
      f-1     :    -0.000726
      f+2     :     0.000208
      f-2     :    -0.000169
      f+3     :    -0.000054
      f-3     :     0.000165
      g0      :     0.000130  g :    -0.000005
      g+1     :     0.000031
      g-1     :    -0.000086
      g+2     :     0.000105
      g-2     :    -0.000145
      g+3     :    -0.000004
      g-3     :    -0.000020
      g+4     :    -0.000029
      g-4     :     0.000014

SPIN
  0 H s       :    -0.011985  s :    -0.011985
      pz      :    -0.003461  p :    -0.006279
      px      :     0.000410
      py      :    -0.003228
      dz2     :    -0.000115  d :     0.001209
      dxz     :     0.001511
      dyz     :    -0.000239
      dx2y2   :     0.000114
      dxy     :    -0.000062
      f0      :     0.000109  f :     0.001084
      f+1     :    -0.000029
      f-1     :     0.000774
      f+2     :     0.000326
      f-2     :    -0.000111
      f+3     :     0.000014
      f-3     :     0.000001
      g0      :     0.000020  g :    -0.000298
      g+1     :     0.000088
      g-1     :    -0.000310
      g+2     :    -0.000023
      g-2     :    -0.000092
      g+3     :     0.000018
      g-3     :     0.000000
      g+4     :     0.000001
      g-4     :     0.000000
  1 F s       :     0.003216  s :     0.003216
      pz      :    -0.000109  p :     0.014321
      px      :    -0.000298
      py      :     0.014727
      dz2     :     0.000512  d :     0.001080
      dxz     :    -0.000299
      dyz     :     0.000816
      dx2y2   :     0.000070
      dxy     :    -0.000019
      f0      :    -0.000209  f :    -0.000460
      f+1     :    -0.000141
      f-1     :    -0.000077
      f+2     :     0.000009
      f-2     :    -0.000042
      f+3     :     0.000001
      f-3     :    -0.000000
      g0      :    -0.000149  g :    -0.000450
      g+1     :    -0.000070
      g-1     :    -0.000209
      g+2     :     0.000001
      g-2     :    -0.000022
      g+3     :    -0.000000
      g-3     :    -0.000000
      g+4     :    -0.000000
      g-4     :    -0.000000
      h0      :    -0.000036  h :    -0.000143
      h+1     :    -0.000023
      h-1     :    -0.000074
      h+2     :    -0.000000
      h-2     :    -0.000010
      h+3     :    -0.000000
      h-3     :    -0.000000
      h+4     :    -0.000000
      h-4     :    -0.000000
      h+5     :    -0.000000
      h-5     :     0.000000
  2 O s       :     0.009822  s :     0.009822
      pz      :     0.006098  p :     0.979966
      px      :     0.005993
      py      :     0.967876
      dz2     :     0.000536  d :     0.002229
      dxz     :     0.000446
      dyz     :     0.000045
      dx2y2   :     0.000089
      dxy     :     0.001112
      f0      :     0.000268  f :    -0.000231
      f+1     :     0.000049
      f-1     :     0.000001
      f+2     :    -0.000082
      f-2     :     0.000042
      f+3     :    -0.000473
      f-3     :    -0.000036
      g0      :     0.000016  g :    -0.000001
      g+1     :    -0.000007
      g-1     :    -0.000023
      g+2     :     0.000004
      g-2     :     0.000017
      g+3     :    -0.000001
      g-3     :     0.000000
      g+4     :    -0.000007
      g-4     :    -0.000000
      h0      :     0.000005  h :     0.000010
      h+1     :    -0.000003
      h-1     :     0.000001
      h+2     :    -0.000001
      h-2     :     0.000006
      h+3     :    -0.000001
      h-3     :     0.000000
      h+4     :     0.000000
      h-4     :    -0.000000
      h+5     :     0.000004
      h-5     :     0.000000
  3 H s       :    -0.005590  s :    -0.005590
      pz      :    -0.003770  p :     0.008919
      px      :    -0.003631
      py      :     0.016319
      dz2     :     0.000388  d :     0.002913
      dxz     :     0.000461
      dyz     :     0.000270
      dx2y2   :    -0.000300
      dxy     :     0.002095
      f0      :    -0.000198  f :     0.000623
      f+1     :     0.000315
      f-1     :     0.000022
      f+2     :     0.000124
      f-2     :     0.000122
      f+3     :    -0.000003
      f-3     :     0.000242
      g0      :     0.000001  g :     0.000046
      g+1     :    -0.000052
      g-1     :     0.000031
      g+2     :     0.000017
      g-2     :    -0.000002
      g+3     :     0.000011
      g-3     :     0.000014
      g+4     :     0.000002
      g-4     :     0.000024


                     *******************************
                     * LOEWDIN POPULATION ANALYSIS *
                     *******************************

-------------------------------------------
LOEWDIN ATOMIC CHARGES AND SPIN POPULATIONS
-------------------------------------------
   0 H :   -1.212645    0.034182
   1 F :    0.979790    0.022488
   2 O :    0.994441    0.781839
   3 H :   -0.761586    0.161491

----------------------------------------------------
LOEWDIN REDUCED ORBITAL CHARGES AND SPIN POPULATIONS
----------------------------------------------------
CHARGE
  0 H s       :     0.569989  s :     0.569989
      pz      :     0.413909  p :     0.718095
      px      :     0.154260
      py      :     0.149927
      dz2     :     0.266406  d :     0.615745
      dxz     :     0.184933
      dyz     :     0.163322
      dx2y2   :     0.000860
      dxy     :     0.000225
      f0      :     0.075084  f :     0.224028
      f+1     :     0.080421
      f-1     :     0.065505
      f+2     :     0.002452
      f-2     :     0.000515
      f+3     :     0.000049
      f-3     :     0.000003
      g0      :     0.034080  g :     0.084787
      g+1     :     0.030871
      g-1     :     0.014638
      g+2     :     0.004185
      g-2     :     0.000742
      g+3     :     0.000252
      g-3     :     0.000016
      g+4     :     0.000003
      g-4     :     0.000000
  1 F s       :     3.227330  s :     3.227330
      pz      :     1.502481  p :     4.615591
      px      :     1.562469
      py      :     1.550641
      dz2     :     0.047166  d :     0.060897
      dxz     :     0.008100
      dyz     :     0.005523
      dx2y2   :     0.000083
      dxy     :     0.000025
      f0      :     0.033176  f :     0.049571
      f+1     :     0.010344
      f-1     :     0.005538
      f+2     :     0.000393
      f-2     :     0.000104
      f+3     :     0.000014
      f-3     :     0.000002
      g0      :     0.023369  g :     0.036663
      g+1     :     0.008169
      g-1     :     0.004797
      g+2     :     0.000245
      g-2     :     0.000078
      g+3     :     0.000005
      g-3     :     0.000000
      g+4     :     0.000000
      g-4     :     0.000000
      h0      :     0.017142  h :     0.030158
      h+1     :     0.007817
      h-1     :     0.004646
      h+2     :     0.000416
      h-2     :     0.000120
      h+3     :     0.000016
      h-3     :     0.000000
      h+4     :     0.000001
      h-4     :     0.000000
      h+5     :     0.000000
      h-5     :     0.000000
  2 O s       :     3.129428  s :     3.129428
      pz      :     1.463043  p :     3.590943
      px      :     1.350841
      py      :     0.777058
      dz2     :     0.042917  d :     0.086850
      dxz     :     0.017189
      dyz     :     0.008157
      dx2y2   :     0.017455
      dxy     :     0.001132
      f0      :     0.033768  f :     0.067560
      f+1     :     0.015714
      f-1     :     0.013359
      f+2     :     0.001649
      f-2     :     0.000207
      f+3     :     0.002339
      f-3     :     0.000524
      g0      :     0.032566  g :     0.070051
      g+1     :     0.018811
      g-1     :     0.016954
      g+2     :     0.000608
      g-2     :     0.000436
      g+3     :     0.000225
      g-3     :     0.000038
      g+4     :     0.000303
      g-4     :     0.000110
      h0      :     0.025739  h :     0.060727
      h+1     :     0.016891
      h-1     :     0.016334
      h+2     :     0.000675
      h-2     :     0.000695
      h+3     :     0.000090
      h-3     :     0.000019
      h+4     :     0.000088
      h-4     :     0.000025
      h+5     :     0.000118
      h-5     :     0.000054
  3 H s       :     0.642732  s :     0.642732
      pz      :     0.185694  p :     0.553113
      px      :     0.290039
      py      :     0.077380
      dz2     :     0.066988  d :     0.391955
      dxz     :     0.138672
      dyz     :     0.008702
      dx2y2   :     0.106877
      dxy     :     0.070716
      f0      :     0.021854  f :     0.129863
      f+1     :     0.037075
      f-1     :     0.005580
      f+2     :     0.024070
      f-2     :     0.006201
      f+3     :     0.015061
      f-3     :     0.020022
      g0      :     0.009869  g :     0.043924
      g+1     :     0.014240
      g-1     :     0.004525
      g+2     :     0.006729
      g-2     :     0.003430
      g+3     :     0.001784
      g-3     :     0.000902
      g+4     :     0.001369
      g-4     :     0.001075

SPIN
  0 H s       :    -0.001942  s :    -0.001942
      pz      :    -0.003342  p :    -0.002229
      px      :    -0.000434
      py      :     0.001547
      dz2     :    -0.000889  d :     0.017348
      dxz     :    -0.000675
      dyz     :     0.018719
      dx2y2   :    -0.000026
      dxy     :     0.000219
      f0      :    -0.000615  f :     0.008826
      f+1     :    -0.000441
      f-1     :     0.009459
      f+2     :    -0.000061
      f-2     :     0.000486
      f+3     :    -0.000005
      f-3     :     0.000003
      g0      :    -0.000188  g :     0.012181
      g+1     :    -0.000200
      g-1     :     0.011924
      g+2     :    -0.000078
      g-2     :     0.000735
      g+3     :    -0.000026
      g-3     :     0.000015
      g+4     :    -0.000000
      g-4     :     0.000000
  1 F s       :    -0.000391  s :    -0.000391
      pz      :    -0.001796  p :     0.009617
      px      :    -0.000003
      py      :     0.011417
      dz2     :    -0.000991  d :     0.000897
      dxz     :    -0.000172
      dyz     :     0.002041
      dx2y2   :    -0.000003
      dxy     :     0.000023
      f0      :    -0.000455  f :     0.004125
      f+1     :    -0.000175
      f-1     :     0.004659
      f+2     :    -0.000010
      f-2     :     0.000104
      f+3     :    -0.000001
      f-3     :     0.000002
      g0      :    -0.000092  g :     0.003793
      g+1     :    -0.000057
      g-1     :     0.003872
      g+2     :    -0.000005
      g-2     :     0.000075
      g+3     :    -0.000001
      g-3     :     0.000000
      g+4     :     0.000000
      g-4     :     0.000000
      h0      :     0.000059  h :     0.004447
      h+1     :     0.000019
      h-1     :     0.004258
      h+2     :    -0.000005
      h-2     :     0.000118
      h+3     :    -0.000002
      h-3     :     0.000000
      h+4     :    -0.000000
      h-4     :     0.000000
      h+5     :     0.000000
      h-5     :     0.000000
  2 O s       :     0.007271  s :     0.007271
      pz      :     0.008254  p :     0.772992
      px      :     0.009890
      py      :     0.754849
      dz2     :     0.000049  d :     0.000710
      dxz     :    -0.000295
      dyz     :     0.000261
      dx2y2   :    -0.000385
      dxy     :     0.001080
      f0      :     0.000020  f :     0.000285
      f+1     :     0.000016
      f-1     :     0.000155
      f+2     :     0.000026
      f-2     :     0.000064
      f+3     :    -0.000516
      f-3     :     0.000521
      g0      :    -0.000038  g :     0.000286
      g+1     :    -0.000008
      g-1     :     0.000214
      g+2     :     0.000000
      g-2     :     0.000002
      g+3     :    -0.000007
      g-3     :     0.000038
      g+4     :    -0.000022
      g-4     :     0.000108
      h0      :    -0.000023  h :     0.000295
      h+1     :    -0.000003
      h-1     :     0.000209
      h+2     :    -0.000001
      h-2     :     0.000036
      h+3     :    -0.000001
      h-3     :     0.000006
      h+4     :     0.000000
      h-4     :     0.000021
      h+5     :    -0.000000
      h-5     :     0.000051
  3 H s       :    -0.013359  s :    -0.013359
      pz      :    -0.003256  p :     0.071752
      px      :     0.001492
      py      :     0.073516
      dz2     :     0.001163  d :     0.076453
      dxz     :     0.001168
      dyz     :     0.005175
      dx2y2   :     0.000726
      dxy     :     0.068222
      f0      :     0.000381  f :     0.025101
      f+1     :     0.000562
      f-1     :     0.000719
      f+2     :     0.000158
      f-2     :     0.004082
      f+3     :    -0.000180
      f-3     :     0.019378
      g0      :     0.000012  g :     0.001545
      g+1     :     0.000023
      g-1     :     0.000194
      g+2     :    -0.000002
      g-2     :     0.000157
      g+3     :    -0.000033
      g-3     :     0.000283
      g+4     :    -0.000076
      g-4     :     0.000985


                      *****************************
                      * MAYER POPULATION ANALYSIS *
                      *****************************

  NA   - Mulliken gross atomic population
  ZA   - Total nuclear charge
  QA   - Mulliken gross atomic charge
  VA   - Mayer's total valence
  BVA  - Mayer's bonded valence
  FA   - Mayer's free valence

  ATOM       NA         ZA         QA         VA         BVA        FA
  0 H      0.7221     1.0000     0.2779     1.0387     1.0385     0.0002
  1 F      9.2995     9.0000    -0.2995     0.7970     0.7967     0.0002
  2 O      8.1959     8.0000    -0.1959     1.9901     1.0467     0.9434
  3 H      0.7825     1.0000     0.2175     1.0048     1.0048    -0.0001

  Mayer bond orders larger than 0.1
B(  0-H ,  1-F ) :   0.9166 B(  0-H ,  2-O ) :   0.1233 B(  1-F ,  2-O ) :  -0.1013 
B(  2-O ,  3-H ) :   1.0247 

-------
TIMINGS
-------

Total SCF time: 0 days 0 hours 17 min 38 sec 

Total time                  ....    1058.227 sec
Sum of individual times     ....    1057.129 sec  ( 99.9%)

Fock matrix formation       ....    1052.043 sec  ( 99.4%)
  XC integration            ....      18.730 sec  (  1.8% of F)
    Basis function eval.    ....       1.145 sec  (  6.1% of XC)
    Density eval.           ....       3.953 sec  ( 21.1% of XC)
    XC-Functional eval.     ....       0.151 sec  (  0.8% of XC)
    XC-Potential eval.      ....      12.714 sec  ( 67.9% of XC)
Diagonalization             ....       2.172 sec  (  0.2%)
Density matrix formation    ....       0.038 sec  (  0.0%)
Population analysis         ....       0.378 sec  (  0.0%)
Initial guess               ....       0.957 sec  (  0.1%)
Orbital Transformation      ....       0.000 sec  (  0.0%)
Orbital Orthonormalization  ....       0.000 sec  (  0.0%)
DIIS solution               ....       1.171 sec  (  0.1%)
Grid generation             ....       0.370 sec  (  0.0%)

-------------------------   --------------------
FINAL SINGLE POINT ENERGY      -176.102505706912
-------------------------   --------------------


                            ***************************************
                            *     ORCA property calculations      *
                            ***************************************

                                    ---------------------
                                    Active property flags
                                    ---------------------
   (+) Dipole Moment


------------------------------------------------------------------------------
                       ORCA ELECTRIC PROPERTIES CALCULATION
------------------------------------------------------------------------------

Dipole Moment Calculation                       ... on
Quadrupole Moment Calculation                   ... off
Polarizability Calculation                      ... off
GBWName                                         ... fh-oh_pbe_+0001_z.gbw
Electron density file                           ... fh-oh_pbe_+0001_z.scfp.tmp
The origin for moment calculation is the CENTER OF MASS  = ( 0.194920,  0.000000 -0.679422)

-------------
DIPOLE MOMENT
-------------
                                X             Y             Z
Electronic contribution:     -0.29509       0.00000       1.39245
Nuclear contribution   :      0.93855       0.00000      -2.47969
                        -----------------------------------------
Total Dipole Moment    :      0.64345       0.00000      -1.08723
                        -----------------------------------------
Magnitude (a.u.)       :      1.26337
Magnitude (Debye)      :      3.21124



--------------------
Rotational spectrum 
--------------------
 
Rotational constants in cm-1:    21.356998     0.246472     0.243660 
Rotational constants in MHz : 640266.678212  7389.040107  7304.739279 

 Dipole components along the rotational axes: 
x,y,z [a.u.] :     1.138653     0.547335    -0.000000 
x,y,z [Debye]:     2.894227     1.391216    -0.000000 

 

Timings for individual modules:

Sum of individual times         ...     1079.122 sec (=  17.985 min)
GTO integral calculation        ...       10.155 sec (=   0.169 min)   0.9 %
SCF iterations                  ...     1068.967 sec (=  17.816 min)  99.1 %
                             ****ORCA TERMINATED NORMALLY****
TOTAL RUN TIME: 0 days 0 hours 18 minutes 8 seconds 268 msec
