
                                 *****************
                                 * O   R   C   A *
                                 *****************

           --- An Ab Initio, DFT and Semiempirical electronic structure package ---

                  #######################################################
                  #                        -***-                        #
                  #          Department of theory and spectroscopy      #
                  #               Directorship: Frank Neese             #
                  #        Max Planck Institute fuer Kohlenforschung    #
                  #                Kaiser Wilhelm Platz 1               #
                  #                 D-45470 Muelheim/Ruhr               #
                  #                      Germany                        #
                  #                                                     #
                  #                  All rights reserved                #
                  #                        -***-                        #
                  #######################################################


                         Program Version 4.1.2  - RELEASE  -


 With contributions from (in alphabetic order):
   Daniel Aravena         : Magnetic Properties
   Michael Atanasov       : Ab Initio Ligand Field Theory
   Alexander A. Auer      : GIAO ZORA
   Ute Becker             : Parallelization
   Giovanni Bistoni       : ED, Open-shell LED
   Martin Brehm           : Molecular dynamics
   Dmytro Bykov           : SCF Hessian
   Vijay G. Chilkuri      : MRCI spin determinant printing
   Dipayan Datta          : RHF DLPNO-CCSD density
   Achintya Kumar Dutta   : EOM-CC, STEOM-CC
   Dmitry Ganyushin       : Spin-Orbit,Spin-Spin,Magnetic field MRCI
   Miquel Garcia          : C-PCM Hessian
   Yang Guo               : DLPNO-NEVPT2, CIM, IAO-localization
   Andreas Hansen         : Spin unrestricted coupled pair/coupled cluster methods
   Benjamin Helmich-Paris : CASSCF linear response (MC-RPA)
   Lee Huntington         : MR-EOM, pCC
   Robert Izsak           : Overlap fitted RIJCOSX, COSX-SCS-MP3, EOM
   Christian Kollmar      : KDIIS, OOCD, Brueckner-CCSD(T), CCSD density
   Simone Kossmann        : Meta GGA functionals, TD-DFT gradient, OOMP2, MP2 Hessian
   Martin Krupicka        : AUTO-CI
   Lucas Lang             : DCDCAS
   Dagmar Lenk            : GEPOL surface, SMD
   Dimitrios Liakos       : Extrapolation schemes; parallel MDCI
   Dimitrios Manganas     : ROCIS; embedding schemes
   Dimitrios Pantazis     : SARC Basis sets
   Taras Petrenko         : DFT Hessian,TD-DFT gradient, ASA, ECA, R-Raman, ABS, FL, XAS/XES, NRVS
   Peter Pinski           : DLPNO-MP2, DLPNO-MP2 Gradient
   Christoph Reimann      : Effective Core Potentials
   Marius Retegan         : Local ZFS, SOC
   Christoph Riplinger    : Optimizer, TS searches, QM/MM, DLPNO-CCSD(T), (RO)-DLPNO pert. Triples
   Tobias Risthaus        : Range-separated hybrids, TD-DFT gradient, RPA, STAB
   Michael Roemelt        : Restricted open shell CIS
   Masaaki Saitow         : Open-shell DLPNO
   Barbara Sandhoefer     : DKH picture change effects
   Avijit Sen             : IP-ROCIS
   Kantharuban Sivalingam : CASSCF convergence, NEVPT2, FIC-MRCI
   Bernardo de Souza      : ESD, SOC TD-DFT
   Georgi Stoychev        : AutoAux, RI-MP2 NMR
   Willem Van den Heuvel  : Paramagnetic NMR
   Boris Wezisla          : Elementary symmetry handling
   Frank Wennmohs         : Technical directorship


 We gratefully acknowledge several colleagues who have allowed us to
 interface, adapt or use parts of their codes:
   Stefan Grimme, W. Hujo, H. Kruse,             : VdW corrections, initial TS optimization,
                  C. Bannwarth                     DFT functionals, gCP, sTDA/sTD-DF
   Ed Valeev                                     : LibInt (2-el integral package), F12 methods
   Garnet Chan, S. Sharma, J. Yang, R. Olivares  : DMRG
   Ulf Ekstrom                                   : XCFun DFT Library
   Mihaly Kallay                                 : mrcc  (arbitrary order and MRCC methods)
   Andreas Klamt, Michael Diedenhofen            : otool_cosmo (COSMO solvation model)
   Jiri Pittner, Ondrej Demel                    : Mk-CCSD
   Frank Weinhold                                : gennbo (NPA and NBO analysis)
   Christopher J. Cramer and Donald G. Truhlar   : smd solvation model
   Lars Goerigk                                  : TD-DFT with DH, B97 family of functionals
   V. Asgeirsson, H. Jonsson                     : NEB implementation
   FAccTs GmbH                                   : IRC, NEB, NEB-TS, Multilevel


 Your calculation uses the libint2 library for the computation of 2-el integrals
 For citations please refer to: http://libint.valeyev.net

 This ORCA versions uses:
   CBLAS   interface :  Fast vector & matrix operations
   LAPACKE interface :  Fast linear algebra routines
   SCALAPACK package :  Parallel linear algebra routines


----- Orbital basis set information -----
Your calculation utilizes the basis: aug-pc-4
   H, C-F              : F. Jensen, J. Chem. Phys. 115, 9113 (2001).
                         F. Jensen, J. Chem. Phys. 116, 7372 (2002).
                         F. Jensen, J. Chem. Phys. 117, 9234 (2002).
   Si-Cl               : F. Jensen, T. Helgaker, J. Chem. Phys. 121, 3463 (2004).
   He-B, Ne-Mg, Al, Ar : F. Jensen, J. Phys. Chem. A 111, 11198 (2007).
   K, Ca, Ga-Kr        : F. Jensen, J. Chem. Phys. 136, 094110 (2012).
   Sc-Zn               : F. Jensen, J. Chem. Phys. 138, 014107 (2013).

================================================================================
                                        WARNINGS
                       Please study these warnings very carefully!
================================================================================


INFO   : the flag for use of LIBINT has been found!

================================================================================
                                       INPUT FILE
================================================================================
NAME = ho2_pbe_00.inp
|  1> !uks pbe nori aug-pc-4 grid5 nofinalgrid verytightscf
|  2> 
|  3> %maxcore 6000
|  4> 
|  5> %pal nprocs 4 end
|  6> 
|  7> %scf
|  8> 	efield 0.0, 0.0, 0.0
|  9> 	maxiter 200
| 10> end
| 11> 
| 12> * xyz 0 2
| 13> O 0.0553 -0.6132 0.0000
| 14> O 0.0553 0.7198 0.0000
| 15> H -0.8853 -0.8528 0.0000
| 16> *
| 17> 
| 18>                          ****END OF INPUT****
================================================================================

                       ****************************
                       * Single Point Calculation *
                       ****************************

---------------------------------
CARTESIAN COORDINATES (ANGSTROEM)
---------------------------------
  O      0.055300   -0.613200    0.000000
  O      0.055300    0.719800    0.000000
  H     -0.885300   -0.852800    0.000000

----------------------------
CARTESIAN COORDINATES (A.U.)
----------------------------
  NO LB      ZA    FRAG     MASS         X           Y           Z
   0 O     8.0000    0    15.999    0.104502   -1.158780    0.000000
   1 O     8.0000    0    15.999    0.104502    1.360225    0.000000
   2 H     1.0000    0     1.008   -1.672975   -1.611558    0.000000

--------------------------------
INTERNAL COORDINATES (ANGSTROEM)
--------------------------------
 O      0   0   0     0.000000000000     0.00000000     0.00000000
 O      1   0   0     1.333000000000     0.00000000     0.00000000
 H      1   2   0     0.970637172171   104.29108059     0.00000000

---------------------------
INTERNAL COORDINATES (A.U.)
---------------------------
 O      0   0   0     0.000000000000     0.00000000     0.00000000
 O      1   0   0     2.519004936517     0.00000000     0.00000000
 H      1   2   0     1.834238430807   104.29108059     0.00000000

---------------------
BASIS SET INFORMATION
---------------------
There are 2 groups of distinct atoms

 Group   1 Type O   : 27s12p7d4f3g2h contracted to 9s8p7d4f3g2h pattern {1191111111/51111111/1111111/1111/111/11}
 Group   2 Type H   : 12s7p4d3f2g contracted to 8s7p4d3f2g pattern {51111111/1111111/1111/111/11}

Atom   0O    basis set group =>   1
Atom   1O    basis set group =>   1
Atom   2H    basis set group =>   2


           ************************************************************
           *        Program running with 4 parallel MPI-processes     *
           *              working on a common directory               *
           ************************************************************
------------------------------------------------------------------------------
                           ORCA GTO INTEGRAL CALCULATION
------------------------------------------------------------------------------

                         BASIS SET STATISTICS AND STARTUP INFO

 # of primitive gaussian shells          ...  138
 # of primitive gaussian functions       ...  442
 # of contracted shells                  ...   90
 # of contracted basis functions         ...  378
 Highest angular momentum                ...    5
 Maximum contraction depth               ...   11
 Integral package used                   ... LIBINT
 Integral threshhold            Thresh   ...  1.000e-12
 Primitive cut-off              TCut     ...  1.000e-14


------------------------------ INTEGRAL EVALUATION ----------------------------


 * One electron integrals 
 Pre-screening matrix                    ... done
 Shell pair data                         ... done (   0.001 sec)



           ************************************************************
           *        Program running with 4 parallel MPI-processes     *
           *              working on a common directory               *
           ************************************************************
-------------------------------------------------------------------------------
                                 ORCA SCF
-------------------------------------------------------------------------------

------------
SCF SETTINGS
------------
Hamiltonian:
 Density Functional     Method          .... DFT(GTOs)
 Exchange Functional    Exchange        .... PBE
   PBE kappa parameter   XKappa         ....  0.804000
   PBE mue parameter    XMuePBE         ....  0.219520
 Correlation Functional Correlation     .... PBE
   PBE beta parameter  CBetaPBE         ....  0.066725
 LDA part of GGA corr.  LDAOpt          .... PW91-LDA
 Gradients option       PostSCFGGA      .... off
   Density functional embedding theory  .... OFF
   NL short-range parameter             ....  6.400000


General Settings:
 Integral files         IntName         .... ho2_pbe_00
 Hartree-Fock type      HFTyp           .... UHF
 Total Charge           Charge          ....    0
 Multiplicity           Mult            ....    2
 Number of Electrons    NEL             ....   17
 Basis Dimension        Dim             ....  378
 Nuclear Repulsion      ENuc            ....     32.0786163037 Eh

Convergence Acceleration:
 DIIS                   CNVDIIS         .... on
   Start iteration      DIISMaxIt       ....    12
   Startup error        DIISStart       ....  0.200000
   # of expansion vecs  DIISMaxEq       ....     5
   Bias factor          DIISBfac        ....   1.050
   Max. coefficient     DIISMaxC        ....  10.000
 Newton-Raphson         CNVNR           .... off
 SOSCF                  CNVSOSCF        .... off
 Level Shifting         CNVShift        .... on
   Level shift para.    LevelShift      ....    0.2500
   Turn off err/grad.   ShiftErr        ....    0.0010
 Zerner damping         CNVZerner       .... off
 Static damping         CNVDamp         .... on
   Fraction old density DampFac         ....    0.7000
   Max. Damping (<1)    DampMax         ....    0.9800
   Min. Damping (>=0)   DampMin         ....    0.0000
   Turn off err/grad.   DampErr         ....    0.1000
 Fernandez-Rico         CNVRico         .... off

SCF Procedure:
 Maximum # iterations   MaxIter         ....   200
 SCF integral mode      SCFMode         .... Direct
   Integral package                     .... LIBINT
 Reset frequency        DirectResetFreq ....    20
 Integral Threshold     Thresh          ....  1.000e-12 Eh
 Primitive CutOff       TCut            ....  1.000e-14 Eh

Convergence Tolerance:
 Convergence Check Mode ConvCheckMode   .... Total+1el-Energy
 Convergence forced     ConvForced      .... 0
 Energy Change          TolE            ....  1.000e-09 Eh
 1-El. energy change                    ....  1.000e-06 Eh
 DIIS Error             TolErr          ....  1.000e-08


Diagonalization of the overlap matrix:
Smallest eigenvalue                        ... 1.779e-06
Time for diagonalization                   ...    0.166 sec
Threshold for overlap eigenvalues          ... 1.000e-08
Number of eigenvalues below threshold      ... 0
Time for construction of square roots      ...    0.021 sec
Total time needed                          ...    0.188 sec

-------------------
DFT GRID GENERATION
-------------------

General Integration Accuracy     IntAcc      ...  5.010
Radial Grid Type                 RadialGrid  ... Gauss-Chebyshev
Angular Grid (max. acc.)         AngularGrid ... Lebedev-434
Angular grid pruning method      GridPruning ... 3 (G Style)
Weight generation scheme         WeightScheme... Becke
Basis function cutoff            BFCut       ...    1.0000e-12
Integration weight cutoff        WCut        ...    1.0000e-14
Grids for H and He will be reduced by one unit

# of grid points (after initial pruning)     ...  28376 (   0.0 sec)
# of grid points (after weights+screening)   ...  28123 (   0.0 sec)
nearest neighbour list constructed           ...    0.0 sec
Grid point re-assignment to atoms done       ...    0.0 sec
Grid point division into batches done        ...    0.2 sec
Reduced shell lists constructed in    0.3 sec

Total number of grid points                  ...    28123
Total number of batches                      ...      441
Average number of points per batch           ...       63
Average number of grid points per atom       ...     9374
Average number of shells per batch           ...    69.68 (77.42%)
Average number of basis functions per batch  ...   303.16 (80.20%)
Average number of large shells per batch     ...    63.39 (90.98%)
Average number of large basis fcns per batch ...   278.66 (91.92%)
Maximum spatial batch extension              ...  12.44, 12.65, 16.52 au
Average spatial batch extension              ...   0.65,  0.67,  0.76 au

Time for grid setup =    0.321 sec

------------------------------
INITIAL GUESS: MODEL POTENTIAL
------------------------------
Loading Hartree-Fock densities                     ... done
Calculating cut-offs                               ... done
Setting up the integral package                    ... done
Initializing the effective Hamiltonian             ... done
Starting the Coulomb interaction                   ... done (   0.0 sec)
Reading the grid                                   ... done
Mapping shells                                     ... done
Starting the XC term evaluation                    ... done (   0.5 sec)
  promolecular density results
     # of electrons  =     16.999512255
     EX              =    -16.517889834
     EC              =     -0.561974834
     EX+EC           =    -17.079864668
Transforming the Hamiltonian                       ... done (   0.0 sec)
Diagonalizing the Hamiltonian                      ... done (   0.0 sec)
Back transforming the eigenvectors                 ... done (   0.0 sec)
Now organizing SCF variables                       ... done
                      ------------------
                      INITIAL GUESS DONE (   0.9 sec)
                      ------------------
--------------
SCF ITERATIONS
--------------
ITER       Energy         Delta-E        Max-DP      RMS-DP      [F,P]     Damp
               ***  Starting incremental Fock matrix formation  ***
  0   -150.8154684685   0.000000000000 0.00645772  0.00008053  0.1084075 0.7000
  1   -150.8271946494  -0.011726180861 0.00431922  0.00005903  0.0523437 0.7000
                               ***Turning on DIIS***
  2   -150.8317624559  -0.004567806551 0.00981041  0.00011399  0.0256908 0.0000
  3   -150.8399056137  -0.008143157781 0.00303897  0.00003933  0.0315359 0.0000
  4   -150.8412912743  -0.001385660596 0.00128343  0.00001399  0.0120911 0.0000
  5   -150.8414132104  -0.000121936085 0.00043480  0.00000535  0.0056454 0.0000
  6   -150.8414409282  -0.000027717832 0.00034546  0.00000447  0.0006242 0.0000
  7   -150.8414445762  -0.000003647967 0.00006672  0.00000087  0.0006288 0.0000
  8   -150.8414451079  -0.000000531762 0.00002246  0.00000025  0.0000466 0.0000
  9   -150.8414451347  -0.000000026742 0.00000520  0.00000007  0.0000489 0.0000
 10   -150.8414451380  -0.000000003285 0.00000173  0.00000002  0.0000132 0.0000
 11   -150.8414451383  -0.000000000353 0.00000125  0.00000001  0.0000092 0.0000
 12   -150.8414451384  -0.000000000118 0.00000064  0.00000001  0.0000015 0.0000
 13   -150.8414451384  -0.000000000004 0.00000125  0.00000001  0.0000008 0.0000
                 **** Energy Check signals convergence ****

               *****************************************************
               *                     SUCCESS                       *
               *           SCF CONVERGED AFTER  14 CYCLES          *
               *****************************************************


----------------
TOTAL SCF ENERGY
----------------

Total Energy       :         -150.84144514 Eh           -4104.60440 eV

Components:
Nuclear Repulsion  :           32.07861630 Eh             872.90353 eV
Electronic Energy  :         -182.92006144 Eh           -4977.50792 eV
One Electron Energy:         -270.89069223 Eh           -7371.31049 eV
Two Electron Energy:           87.97063079 Eh            2393.80256 eV

Virial components:
Potential Energy   :         -301.24206862 Eh           -8197.21343 eV
Kinetic Energy     :          150.40062348 Eh            4092.60903 eV
Virial Ratio       :            2.00293098


DFT components:
N(Alpha)           :        9.000000900763 electrons
N(Beta)            :        8.000000752759 electrons
N(Total)           :       17.000001653522 electrons
E(X)               :      -16.704290346389 Eh       
E(C)               :       -0.562175285523 Eh       
E(XC)              :      -17.266465631912 Eh       
DFET-embed. en.    :        0.000000000000 Eh       

---------------
SCF CONVERGENCE
---------------

  Last Energy change         ...   -4.2064e-12  Tolerance :   1.0000e-09
  Last MAX-Density change    ...    1.4556e-06  Tolerance :   1.0000e-08
  Last RMS-Density change    ...    1.7738e-08  Tolerance :   1.0000e-09
  Last DIIS Error            ...    3.3538e-08  Tolerance :   1.0000e-08

             **** THE GBW FILE WAS UPDATED (ho2_pbe_00.gbw) ****
             **** DENSITY FILE WAS UPDATED (ho2_pbe_00.scfp.tmp) ****
             **** ENERGY FILE WAS UPDATED (ho2_pbe_00.en.tmp) ****
----------------------
UHF SPIN CONTAMINATION
----------------------

Warning: in a DFT calculation there is little theoretical justification to 
         calculate <S**2> as in Hartree-Fock theory. We will do it anyways
         but you should keep in mind that the values have only limited relevance

Expectation value of <S**2>     :     0.752337
Ideal value S*(S+1) for S=0.5   :     0.750000
Deviation                       :     0.002337

----------------
ORBITAL ENERGIES
----------------
                 SPIN UP ORBITALS
  NO   OCC          E(Eh)            E(eV) 
   0   1.0000     -18.883004      -513.8327 
   1   1.0000     -18.832823      -512.4672 
   2   1.0000      -1.111420       -30.2433 
   3   1.0000      -0.799500       -21.7555 
   4   1.0000      -0.516826       -14.0636 
   5   1.0000      -0.438271       -11.9260 
   6   1.0000      -0.437615       -11.9081 
   7   1.0000      -0.253869        -6.9081 
   8   1.0000      -0.247133        -6.7248 
   9   0.0000      -0.039537        -1.0759 
  10   0.0000       0.001029         0.0280 
  11   0.0000       0.023040         0.6270 
  12   0.0000       0.026854         0.7307 
  13   0.0000       0.034790         0.9467 
  14   0.0000       0.046986         1.2786 
  15   0.0000       0.057643         1.5686 
  16   0.0000       0.059104         1.6083 
  17   0.0000       0.061340         1.6691 
  18   0.0000       0.085499         2.3266 
  19   0.0000       0.088845         2.4176 
  20   0.0000       0.112180         3.0526 
  21   0.0000       0.115920         3.1543 
  22   0.0000       0.123858         3.3703 
  23   0.0000       0.143034         3.8921 
  24   0.0000       0.146507         3.9867 
  25   0.0000       0.160628         4.3709 
  26   0.0000       0.168844         4.5945 
  27   0.0000       0.175900         4.7865 
  28   0.0000       0.180608         4.9146 
  29   0.0000       0.183210         4.9854 
  30   0.0000       0.186473         5.0742 
  31   0.0000       0.188159         5.1201 
  32   0.0000       0.206115         5.6087 
  33   0.0000       0.215175         5.8552 
  34   0.0000       0.230008         6.2588 
  35   0.0000       0.243102         6.6151 
  36   0.0000       0.247476         6.7342 
  37   0.0000       0.255215         6.9447 
  38   0.0000       0.261909         7.1269 
  39   0.0000       0.279019         7.5925 
  40   0.0000       0.283403         7.7118 
  41   0.0000       0.299343         8.1455 
  42   0.0000       0.301098         8.1933 
  43   0.0000       0.306457         8.3391 
  44   0.0000       0.346404         9.4261 
  45   0.0000       0.347082         9.4446 
  46   0.0000       0.351939         9.5768 
  47   0.0000       0.360565         9.8115 
  48   0.0000       0.379108        10.3161 
  49   0.0000       0.397279        10.8105 
  50   0.0000       0.397670        10.8211 
  51   0.0000       0.409942        11.1551 
  52   0.0000       0.412779        11.2323 
  53   0.0000       0.415157        11.2970 
  54   0.0000       0.429950        11.6995 
  55   0.0000       0.439628        11.9629 
  56   0.0000       0.444517        12.0959 
  57   0.0000       0.451861        12.2958 
  58   0.0000       0.457460        12.4481 
  59   0.0000       0.460859        12.5406 
  60   0.0000       0.468855        12.7582 
  61   0.0000       0.469839        12.7850 
  62   0.0000       0.479326        13.0431 
  63   0.0000       0.507807        13.8181 
  64   0.0000       0.508099        13.8261 
  65   0.0000       0.521995        14.2042 
  66   0.0000       0.523512        14.2455 
  67   0.0000       0.528161        14.3720 
  68   0.0000       0.540531        14.7086 
  69   0.0000       0.548689        14.9306 
  70   0.0000       0.560257        15.2454 
  71   0.0000       0.580834        15.8053 
  72   0.0000       0.588766        16.0212 
  73   0.0000       0.601833        16.3767 
  74   0.0000       0.613523        16.6948 
  75   0.0000       0.625598        17.0234 
  76   0.0000       0.629557        17.1311 
  77   0.0000       0.640916        17.4402 
  78   0.0000       0.648604        17.6494 
  79   0.0000       0.654177        17.8011 
  80   0.0000       0.675668        18.3859 
  81   0.0000       0.694131        18.8883 
  82   0.0000       0.707409        19.2496 
  83   0.0000       0.717484        19.5237 
  84   0.0000       0.722148        19.6507 
  85   0.0000       0.723561        19.6891 
  86   0.0000       0.748905        20.3787 
  87   0.0000       0.760742        20.7008 
  88   0.0000       0.770974        20.9793 
  89   0.0000       0.773758        21.0550 
  90   0.0000       0.785894        21.3853 
  91   0.0000       0.793739        21.5987 
  92   0.0000       0.800227        21.7753 
  93   0.0000       0.823021        22.3955 
  94   0.0000       0.842084        22.9143 
  95   0.0000       0.852208        23.1898 
  96   0.0000       0.852845        23.2071 
  97   0.0000       0.858287        23.3552 
  98   0.0000       0.880064        23.9477 
  99   0.0000       0.884228        24.0611 
 100   0.0000       0.891434        24.2571 
 101   0.0000       0.892742        24.2928 
 102   0.0000       0.914829        24.8938 
 103   0.0000       0.920517        25.0485 
 104   0.0000       0.925228        25.1767 
 105   0.0000       0.945880        25.7387 
 106   0.0000       0.952097        25.9079 
 107   0.0000       0.958159        26.0728 
 108   0.0000       0.961738        26.1702 
 109   0.0000       0.978223        26.6188 
 110   0.0000       0.980258        26.6742 
 111   0.0000       0.995768        27.0962 
 112   0.0000       1.000766        27.2322 
 113   0.0000       1.004544        27.3350 
 114   0.0000       1.036985        28.2178 
 115   0.0000       1.038484        28.2586 
 116   0.0000       1.043661        28.3995 
 117   0.0000       1.052437        28.6383 
 118   0.0000       1.061387        28.8818 
 119   0.0000       1.066958        29.0334 
 120   0.0000       1.092062        29.7165 
 121   0.0000       1.096614        29.8404 
 122   0.0000       1.116437        30.3798 
 123   0.0000       1.125779        30.6340 
 124   0.0000       1.127498        30.6808 
 125   0.0000       1.174522        31.9604 
 126   0.0000       1.179184        32.0872 
 127   0.0000       1.201803        32.7027 
 128   0.0000       1.221038        33.2261 
 129   0.0000       1.231691        33.5160 
 130   0.0000       1.249748        34.0074 
 131   0.0000       1.269273        34.5387 
 132   0.0000       1.280802        34.8524 
 133   0.0000       1.308532        35.6070 
 134   0.0000       1.335862        36.3507 
 135   0.0000       1.378318        37.5059 
 136   0.0000       1.390697        37.8428 
 137   0.0000       1.408917        38.3386 
 138   0.0000       1.461338        39.7650 
 139   0.0000       1.464856        39.8607 
 140   0.0000       1.529117        41.6094 
 141   0.0000       1.542168        41.9645 
 142   0.0000       1.584153        43.1070 
 143   0.0000       1.650104        44.9016 
 144   0.0000       1.673095        45.5272 
 145   0.0000       1.691268        46.0218 
 146   0.0000       1.740824        47.3702 
 147   0.0000       1.757960        47.8365 
 148   0.0000       1.780718        48.4558 
 149   0.0000       1.814537        49.3761 
 150   0.0000       1.866557        50.7916 
 151   0.0000       1.868132        50.8345 
 152   0.0000       1.893306        51.5195 
 153   0.0000       1.920193        52.2511 
 154   0.0000       1.941668        52.8355 
 155   0.0000       1.983830        53.9828 
 156   0.0000       2.058451        56.0133 
 157   0.0000       2.114201        57.5303 
 158   0.0000       2.130307        57.9686 
 159   0.0000       2.153687        58.6048 
 160   0.0000       2.161761        58.8245 
 161   0.0000       2.207880        60.0795 
 162   0.0000       2.233021        60.7636 
 163   0.0000       2.298300        62.5399 
 164   0.0000       2.298471        62.5446 
 165   0.0000       2.413841        65.6839 
 166   0.0000       2.438000        66.3413 
 167   0.0000       2.473395        67.3045 
 168   0.0000       2.513181        68.3871 
 169   0.0000       2.582854        70.2830 
 170   0.0000       2.615829        71.1803 
 171   0.0000       2.674477        72.7762 
 172   0.0000       2.811711        76.5105 
 173   0.0000       2.927380        79.6580 
 174   0.0000       3.013548        82.0028 
 175   0.0000       3.141304        85.4792 
 176   0.0000       3.142778        85.5193 
 177   0.0000       3.202899        87.1553 
 178   0.0000       3.292455        89.5923 
 179   0.0000       3.303333        89.8883 
 180   0.0000       3.425529        93.2134 
 181   0.0000       3.461495        94.1921 
 182   0.0000       3.486406        94.8699 
 183   0.0000       3.586782        97.6013 
 184   0.0000       3.659715        99.5859 
 185   0.0000       3.754714       102.1710 
 186   0.0000       3.782275       102.9209 
 187   0.0000       3.938581       107.1742 
 188   0.0000       3.940927       107.2381 
 189   0.0000       4.030257       109.6689 
 190   0.0000       4.093136       111.3799 
 191   0.0000       4.115475       111.9878 
 192   0.0000       4.153919       113.0339 
 193   0.0000       4.170986       113.4983 
 194   0.0000       4.220743       114.8523 
 195   0.0000       4.270120       116.1959 
 196   0.0000       4.319482       117.5391 
 197   0.0000       4.333501       117.9205 
 198   0.0000       4.391628       119.5023 
 199   0.0000       4.419522       120.2613 
 200   0.0000       4.455562       121.2420 
 201   0.0000       4.533329       123.3582 
 202   0.0000       4.594787       125.0305 
 203   0.0000       4.607712       125.3822 
 204   0.0000       4.643783       126.3638 
 205   0.0000       4.855884       132.1353 
 206   0.0000       4.941069       134.4533 
 207   0.0000       5.012429       136.3951 
 208   0.0000       5.031721       136.9201 
 209   0.0000       5.117018       139.2411 
 210   0.0000       5.209786       141.7655 
 211   0.0000       5.260354       143.1415 
 212   0.0000       5.271017       143.4317 
 213   0.0000       5.297520       144.1528 
 214   0.0000       5.326470       144.9406 
 215   0.0000       5.460398       148.5850 
 216   0.0000       5.578945       151.8108 
 217   0.0000       5.603979       152.4920 
 218   0.0000       5.704389       155.2243 
 219   0.0000       5.884714       160.1312 
 220   0.0000       5.919284       161.0719 
 221   0.0000       5.919980       161.0908 
 222   0.0000       5.989585       162.9849 
 223   0.0000       6.055711       164.7843 
 224   0.0000       6.103232       166.0774 
 225   0.0000       6.115342       166.4069 
 226   0.0000       6.196792       168.6233 
 227   0.0000       6.252905       170.1502 
 228   0.0000       6.543388       178.0547 
 229   0.0000       6.723565       182.9575 
 230   0.0000       6.777983       184.4383 
 231   0.0000       6.891633       187.5309 
 232   0.0000       6.940210       188.8527 
 233   0.0000       7.103157       193.2867 
 234   0.0000       7.151443       194.6006 
 235   0.0000       7.269166       197.8041 
 236   0.0000       7.388960       201.0638 
 237   0.0000       7.404648       201.4907 
 238   0.0000       7.580517       206.2763 
 239   0.0000       7.767506       211.3646 
 240   0.0000       7.807835       212.4620 
 241   0.0000       8.372718       227.8332 
 242   0.0000       8.395973       228.4660 
 243   0.0000       8.470265       230.4876 
 244   0.0000       8.743210       237.9148 
 245   0.0000       8.829091       240.2518 
 246   0.0000       8.918582       242.6870 
 247   0.0000       9.137213       248.6362 
 248   0.0000       9.179699       249.7923 
 249   0.0000       9.278700       252.4863 
 250   0.0000       9.290443       252.8058 
 251   0.0000       9.393171       255.6012 
 252   0.0000       9.394036       255.6247 
 253   0.0000       9.466118       257.5862 
 254   0.0000       9.669992       263.1339 
 255   0.0000       9.890850       269.1437 
 256   0.0000       9.973021       271.3797 
 257   0.0000      10.081918       274.3429 
 258   0.0000      10.362408       281.9755 
 259   0.0000      10.378061       282.4014 
 260   0.0000      10.701054       291.1905 
 261   0.0000      10.811040       294.1834 
 262   0.0000      10.830031       294.7001 
 263   0.0000      11.001263       299.3596 
 264   0.0000      11.165517       303.8292 
 265   0.0000      11.166334       303.8514 
 266   0.0000      11.174397       304.0708 
 267   0.0000      11.294574       307.3410 
 268   0.0000      11.377599       309.6002 
 269   0.0000      11.484715       312.5150 
 270   0.0000      11.555258       314.4346 
 271   0.0000      11.689217       318.0798 
 272   0.0000      11.743501       319.5569 
 273   0.0000      11.776359       320.4510 
 274   0.0000      11.785132       320.6898 
 275   0.0000      11.931618       324.6758 
 276   0.0000      11.998319       326.4908 
 277   0.0000      11.999704       326.5285 
 278   0.0000      12.008838       326.7771 
 279   0.0000      12.027140       327.2751 
 280   0.0000      12.139905       330.3436 
 281   0.0000      12.250546       333.3543 
 282   0.0000      12.276104       334.0498 
 283   0.0000      12.421060       337.9942 
 284   0.0000      12.527884       340.9011 
 285   0.0000      12.542936       341.3106 
 286   0.0000      12.596568       342.7701 
 287   0.0000      12.625577       343.5594 
 288   0.0000      12.671929       344.8207 
 289   0.0000      12.689153       345.2894 
 290   0.0000      12.695581       345.4643 
 291   0.0000      12.732134       346.4590 
 292   0.0000      12.825058       348.9876 
 293   0.0000      12.897333       350.9543 
 294   0.0000      12.929731       351.8359 
 295   0.0000      13.028029       354.5107 
 296   0.0000      13.113908       356.8476 
 297   0.0000      13.170935       358.3994 
 298   0.0000      13.636370       371.0645 
 299   0.0000      13.682847       372.3292 
 300   0.0000      13.696270       372.6945 
 301   0.0000      13.948154       379.5486 
 302   0.0000      14.163086       385.3972 
 303   0.0000      14.251413       387.8007 
 304   0.0000      14.493961       394.4007 
 305   0.0000      14.638284       398.3280 
 306   0.0000      14.691614       399.7791 
 307   0.0000      15.410513       419.3414 
 308   0.0000      16.230768       441.6616 
 309   0.0000      16.424399       446.9306 
 310   0.0000      16.686084       454.0514 
 311   0.0000      16.704223       454.5450 
 312   0.0000      16.932664       460.7612 
 313   0.0000      16.934877       460.8214 
 314   0.0000      16.983110       462.1339 
 315   0.0000      17.016460       463.0414 
 316   0.0000      17.051513       463.9953 
 317   0.0000      17.097020       465.2336 
 318   0.0000      17.148546       466.6357 
 319   0.0000      17.238322       469.0786 
 320   0.0000      17.317208       471.2252 
 321   0.0000      17.418798       473.9896 
 322   0.0000      17.475327       475.5278 
 323   0.0000      17.570417       478.1154 
 324   0.0000      17.691930       481.4219 
 325   0.0000      17.729259       482.4377 
 326   0.0000      17.940866       488.1958 
 327   0.0000      18.164691       494.2864 
 328   0.0000      18.229685       496.0550 
 329   0.0000      18.271842       497.2021 
 330   0.0000      18.341450       499.0962 
 331   0.0000      18.804021       511.6834 
 332   0.0000      18.909375       514.5503 
 333   0.0000      18.912915       514.6466 
 334   0.0000      19.141099       520.8558 
 335   0.0000      19.297504       525.1118 
 336   0.0000      19.669691       535.2395 
 337   0.0000      19.890887       541.2585 
 338   0.0000      20.791989       565.7788 
 339   0.0000      20.884889       568.3067 
 340   0.0000      21.326476       580.3229 
 341   0.0000      22.903711       623.2417 
 342   0.0000      22.929234       623.9362 
 343   0.0000      22.949834       624.4967 
 344   0.0000      23.282973       633.5619 
 345   0.0000      23.479582       638.9119 
 346   0.0000      23.610128       642.4642 
 347   0.0000      23.773360       646.9060 
 348   0.0000      23.905576       650.5038 
 349   0.0000      24.051431       654.4727 
 350   0.0000      24.281584       660.7355 
 351   0.0000      26.388908       718.0787 
 352   0.0000      26.889877       731.7107 
 353   0.0000      27.876748       758.5649 
 354   0.0000      30.009573       816.6020 
 355   0.0000      30.710302       835.6698 
 356   0.0000      31.674283       861.9011 
 357   0.0000      31.991838       870.5422 
 358   0.0000      32.026450       871.4840 
 359   0.0000      33.112467       901.0360 
 360   0.0000      34.042163       926.3344 
 361   0.0000      34.847563       948.2504 
 362   0.0000      41.224981      1121.7888 
 363   0.0000      66.477905      1808.9558 
 364   0.0000      66.506740      1809.7404 
 365   0.0000      66.522465      1810.1683 
 366   0.0000      66.664772      1814.0407 
 367   0.0000      66.782533      1817.2451 
 368   0.0000      66.988389      1822.8467 
 369   0.0000      67.009574      1823.4232 
 370   0.0000      67.237684      1829.6304 
 371   0.0000      68.354302      1860.0151 
 372   0.0000      69.641739      1895.0481 
 373   0.0000      90.943604      2474.7013 
 374   0.0000      91.094063      2478.7955 
 375   0.0000      93.402887      2541.6218 
 376   0.0000     142.729423      3883.8650 
 377   0.0000     143.785354      3912.5984 

                 SPIN DOWN ORBITALS
  NO   OCC          E(Eh)            E(eV) 
   0   1.0000     -18.875048      -513.6162 
   1   1.0000     -18.815164      -511.9866 
   2   1.0000      -1.090649       -29.6781 
   3   1.0000      -0.768730       -20.9182 
   4   1.0000      -0.503702       -13.7064 
   5   1.0000      -0.424814       -11.5598 
   6   1.0000      -0.387331       -10.5398 
   7   1.0000      -0.231942        -6.3115 
   8   0.0000      -0.177481        -4.8295 
   9   0.0000      -0.036966        -1.0059 
  10   0.0000       0.008327         0.2266 
  11   0.0000       0.023629         0.6430 
  12   0.0000       0.029669         0.8073 
  13   0.0000       0.035688         0.9711 
  14   0.0000       0.054751         1.4899 
  15   0.0000       0.057849         1.5742 
  16   0.0000       0.061865         1.6834 
  17   0.0000       0.062187         1.6922 
  18   0.0000       0.086447         2.3524 
  19   0.0000       0.090829         2.4716 
  20   0.0000       0.115277         3.1368 
  21   0.0000       0.117422         3.1952 
  22   0.0000       0.125167         3.4060 
  23   0.0000       0.143990         3.9182 
  24   0.0000       0.151270         4.1163 
  25   0.0000       0.165165         4.4944 
  26   0.0000       0.170109         4.6289 
  27   0.0000       0.176652         4.8070 
  28   0.0000       0.181699         4.9443 
  29   0.0000       0.187317         5.0972 
  30   0.0000       0.189724         5.1626 
  31   0.0000       0.190498         5.1837 
  32   0.0000       0.207324         5.6416 
  33   0.0000       0.216452         5.8900 
  34   0.0000       0.232086         6.3154 
  35   0.0000       0.243894         6.6367 
  36   0.0000       0.248433         6.7602 
  37   0.0000       0.255870         6.9626 
  38   0.0000       0.264095         7.1864 
  39   0.0000       0.280919         7.6442 
  40   0.0000       0.285569         7.7707 
  41   0.0000       0.301144         8.1945 
  42   0.0000       0.303979         8.2717 
  43   0.0000       0.307522         8.3681 
  44   0.0000       0.348169         9.4742 
  45   0.0000       0.350068         9.5258 
  46   0.0000       0.352646         9.5960 
  47   0.0000       0.362914         9.8754 
  48   0.0000       0.380616        10.3571 
  49   0.0000       0.399095        10.8599 
  50   0.0000       0.401087        10.9141 
  51   0.0000       0.411247        11.1906 
  52   0.0000       0.416904        11.3445 
  53   0.0000       0.418278        11.3819 
  54   0.0000       0.434150        11.8138 
  55   0.0000       0.440653        11.9908 
  56   0.0000       0.445704        12.1282 
  57   0.0000       0.455980        12.4079 
  58   0.0000       0.461208        12.5501 
  59   0.0000       0.464543        12.6409 
  60   0.0000       0.470895        12.8137 
  61   0.0000       0.474917        12.9231 
  62   0.0000       0.481550        13.1036 
  63   0.0000       0.509875        13.8744 
  64   0.0000       0.510316        13.8864 
  65   0.0000       0.522961        14.2305 
  66   0.0000       0.526450        14.3254 
  67   0.0000       0.529710        14.4141 
  68   0.0000       0.543226        14.7819 
  69   0.0000       0.552789        15.0422 
  70   0.0000       0.565500        15.3880 
  71   0.0000       0.582655        15.8548 
  72   0.0000       0.590457        16.0672 
  73   0.0000       0.604804        16.4575 
  74   0.0000       0.616258        16.7692 
  75   0.0000       0.627033        17.0624 
  76   0.0000       0.632600        17.2139 
  77   0.0000       0.642347        17.4792 
  78   0.0000       0.652246        17.7485 
  79   0.0000       0.655317        17.8321 
  80   0.0000       0.676668        18.4131 
  81   0.0000       0.695164        18.9164 
  82   0.0000       0.709444        19.3050 
  83   0.0000       0.720701        19.6113 
  84   0.0000       0.724751        19.7215 
  85   0.0000       0.726668        19.7736 
  86   0.0000       0.753421        20.5016 
  87   0.0000       0.764707        20.8087 
  88   0.0000       0.774171        21.0663 
  89   0.0000       0.778077        21.1725 
  90   0.0000       0.792286        21.5592 
  91   0.0000       0.795516        21.6471 
  92   0.0000       0.802208        21.8292 
  93   0.0000       0.827334        22.5129 
  94   0.0000       0.847484        23.0612 
  95   0.0000       0.855537        23.2803 
  96   0.0000       0.859643        23.3921 
  97   0.0000       0.861435        23.4408 
  98   0.0000       0.885682        24.1006 
  99   0.0000       0.890107        24.2210 
 100   0.0000       0.893287        24.3076 
 101   0.0000       0.895469        24.3670 
 102   0.0000       0.917223        24.9589 
 103   0.0000       0.927261        25.2321 
 104   0.0000       0.928553        25.2672 
 105   0.0000       0.950679        25.8693 
 106   0.0000       0.958145        26.0724 
 107   0.0000       0.961505        26.1639 
 108   0.0000       0.965542        26.2737 
 109   0.0000       0.984283        26.7837 
 110   0.0000       0.985517        26.8173 
 111   0.0000       1.003277        27.3006 
 112   0.0000       1.003887        27.3172 
 113   0.0000       1.008718        27.4486 
 114   0.0000       1.040497        28.3134 
 115   0.0000       1.040778        28.3210 
 116   0.0000       1.046152        28.4672 
 117   0.0000       1.055086        28.7103 
 118   0.0000       1.064951        28.9788 
 119   0.0000       1.072142        29.1745 
 120   0.0000       1.096229        29.8299 
 121   0.0000       1.100447        29.9447 
 122   0.0000       1.122351        30.5407 
 123   0.0000       1.127607        30.6837 
 124   0.0000       1.130835        30.7716 
 125   0.0000       1.178277        32.0626 
 126   0.0000       1.184336        32.2274 
 127   0.0000       1.206501        32.8306 
 128   0.0000       1.224035        33.3077 
 129   0.0000       1.236540        33.6480 
 130   0.0000       1.252164        34.0731 
 131   0.0000       1.270469        34.5712 
 132   0.0000       1.281149        34.8618 
 133   0.0000       1.309915        35.6446 
 134   0.0000       1.337554        36.3967 
 135   0.0000       1.387460        37.7547 
 136   0.0000       1.393656        37.9233 
 137   0.0000       1.413531        38.4641 
 138   0.0000       1.465138        39.8684 
 139   0.0000       1.469061        39.9752 
 140   0.0000       1.533492        41.7284 
 141   0.0000       1.547472        42.1089 
 142   0.0000       1.586205        43.1628 
 143   0.0000       1.658203        45.1220 
 144   0.0000       1.674075        45.5539 
 145   0.0000       1.703401        46.3519 
 146   0.0000       1.745736        47.5039 
 147   0.0000       1.781163        48.4679 
 148   0.0000       1.785393        48.5830 
 149   0.0000       1.824993        49.6606 
 150   0.0000       1.877560        51.0910 
 151   0.0000       1.901506        51.7426 
 152   0.0000       1.912884        52.0522 
 153   0.0000       1.929780        52.5120 
 154   0.0000       1.954784        53.1924 
 155   0.0000       1.992334        54.2142 
 156   0.0000       2.071171        56.3594 
 157   0.0000       2.119065        57.6627 
 158   0.0000       2.135120        58.0996 
 159   0.0000       2.166520        58.9540 
 160   0.0000       2.179061        59.2953 
 161   0.0000       2.225963        60.5715 
 162   0.0000       2.243897        61.0595 
 163   0.0000       2.307739        62.7968 
 164   0.0000       2.321661        63.1756 
 165   0.0000       2.431541        66.1656 
 166   0.0000       2.443151        66.4815 
 167   0.0000       2.475532        67.3627 
 168   0.0000       2.531837        68.8948 
 169   0.0000       2.592397        70.5427 
 170   0.0000       2.619197        71.2720 
 171   0.0000       2.681992        72.9807 
 172   0.0000       2.813731        76.5655 
 173   0.0000       2.934532        79.8527 
 174   0.0000       3.021154        82.2098 
 175   0.0000       3.144406        85.5636 
 176   0.0000       3.160150        85.9921 
 177   0.0000       3.210876        87.3724 
 178   0.0000       3.297213        89.7217 
 179   0.0000       3.308265        90.0225 
 180   0.0000       3.429511        93.3218 
 181   0.0000       3.466007        94.3148 
 182   0.0000       3.492848        95.0452 
 183   0.0000       3.588382        97.6448 
 184   0.0000       3.664350        99.7120 
 185   0.0000       3.762024       102.3699 
 186   0.0000       3.791938       103.1839 
 187   0.0000       3.950597       107.5012 
 188   0.0000       3.951752       107.5326 
 189   0.0000       4.034976       109.7973 
 190   0.0000       4.107808       111.7791 
 191   0.0000       4.140455       112.6675 
 192   0.0000       4.175542       113.6223 
 193   0.0000       4.205353       114.4335 
 194   0.0000       4.242745       115.4510 
 195   0.0000       4.301010       117.0364 
 196   0.0000       4.343897       118.2034 
 197   0.0000       4.353211       118.4569 
 198   0.0000       4.406036       119.8943 
 199   0.0000       4.444299       120.9355 
 200   0.0000       4.462185       121.4222 
 201   0.0000       4.537604       123.4745 
 202   0.0000       4.618181       125.6671 
 203   0.0000       4.638715       126.2258 
 204   0.0000       4.654142       126.6457 
 205   0.0000       4.866745       132.4309 
 206   0.0000       4.955697       134.8514 
 207   0.0000       5.019709       136.5932 
 208   0.0000       5.067540       137.8948 
 209   0.0000       5.133861       139.6995 
 210   0.0000       5.223887       142.1492 
 211   0.0000       5.298492       144.1793 
 212   0.0000       5.300498       144.2339 
 213   0.0000       5.326431       144.9396 
 214   0.0000       5.339792       145.3031 
 215   0.0000       5.474844       148.9781 
 216   0.0000       5.600903       152.4083 
 217   0.0000       5.624819       153.0591 
 218   0.0000       5.722720       155.7231 
 219   0.0000       5.903037       160.6298 
 220   0.0000       5.947735       161.8461 
 221   0.0000       5.959784       162.1740 
 222   0.0000       6.013803       163.6439 
 223   0.0000       6.078205       165.3964 
 224   0.0000       6.126259       166.7040 
 225   0.0000       6.147250       167.2752 
 226   0.0000       6.205784       168.8680 
 227   0.0000       6.269174       170.5929 
 228   0.0000       6.550011       178.2349 
 229   0.0000       6.734236       183.2479 
 230   0.0000       6.794650       184.8918 
 231   0.0000       6.903265       187.8474 
 232   0.0000       6.966685       189.5731 
 233   0.0000       7.112944       193.5531 
 234   0.0000       7.168064       195.0529 
 235   0.0000       7.284831       198.2303 
 236   0.0000       7.404449       201.4853 
 237   0.0000       7.409495       201.6226 
 238   0.0000       7.596453       206.7100 
 239   0.0000       7.781367       211.7418 
 240   0.0000       7.820726       212.8128 
 241   0.0000       8.379266       228.0114 
 242   0.0000       8.404136       228.6882 
 243   0.0000       8.499553       231.2846 
 244   0.0000       8.760439       238.3837 
 245   0.0000       8.831113       240.3068 
 246   0.0000       8.926453       242.9011 
 247   0.0000       9.139186       248.6899 
 248   0.0000       9.205474       250.4937 
 249   0.0000       9.305979       253.2286 
 250   0.0000       9.326370       253.7834 
 251   0.0000       9.454462       257.2690 
 252   0.0000       9.454475       257.2693 
 253   0.0000       9.490628       258.2531 
 254   0.0000       9.689492       263.6645 
 255   0.0000       9.937502       270.4132 
 256   0.0000       9.978629       271.5323 
 257   0.0000      10.086803       274.4759 
 258   0.0000      10.367635       282.1177 
 259   0.0000      10.399076       282.9733 
 260   0.0000      10.730747       291.9985 
 261   0.0000      10.827349       294.6271 
 262   0.0000      10.902826       296.6810 
 263   0.0000      11.017058       299.7894 
 264   0.0000      11.181447       304.2626 
 265   0.0000      11.194962       304.6304 
 266   0.0000      11.216955       305.2289 
 267   0.0000      11.305028       307.6254 
 268   0.0000      11.396463       310.1135 
 269   0.0000      11.503985       313.0393 
 270   0.0000      11.581321       315.1438 
 271   0.0000      11.717781       318.8570 
 272   0.0000      11.765896       320.1663 
 273   0.0000      11.792991       320.9036 
 274   0.0000      11.808686       321.3307 
 275   0.0000      11.948523       325.1358 
 276   0.0000      12.033837       327.4574 
 277   0.0000      12.044958       327.7600 
 278   0.0000      12.058131       328.1184 
 279   0.0000      12.059261       328.1492 
 280   0.0000      12.166500       331.0673 
 281   0.0000      12.263450       333.7054 
 282   0.0000      12.286066       334.3209 
 283   0.0000      12.439493       338.4958 
 284   0.0000      12.544403       341.3506 
 285   0.0000      12.579814       342.3142 
 286   0.0000      12.614626       343.2614 
 287   0.0000      12.656828       344.4098 
 288   0.0000      12.706805       345.7697 
 289   0.0000      12.740910       346.6978 
 290   0.0000      12.763455       347.3113 
 291   0.0000      12.777404       347.6908 
 292   0.0000      12.862288       350.0006 
 293   0.0000      12.927376       351.7718 
 294   0.0000      12.947817       352.3280 
 295   0.0000      13.062674       355.4534 
 296   0.0000      13.168662       358.3375 
 297   0.0000      13.178809       358.6136 
 298   0.0000      13.647506       371.3675 
 299   0.0000      13.703214       372.8834 
 300   0.0000      13.704619       372.9216 
 301   0.0000      13.958056       379.8180 
 302   0.0000      14.184748       385.9866 
 303   0.0000      14.279476       388.5643 
 304   0.0000      14.507329       394.7645 
 305   0.0000      14.647396       398.5759 
 306   0.0000      14.712039       400.3349 
 307   0.0000      15.417828       419.5404 
 308   0.0000      16.236945       441.8297 
 309   0.0000      16.471407       448.2098 
 310   0.0000      16.686563       454.0645 
 311   0.0000      16.704406       454.5500 
 312   0.0000      17.003204       462.6807 
 313   0.0000      17.011000       462.8928 
 314   0.0000      17.026621       463.3179 
 315   0.0000      17.048795       463.9213 
 316   0.0000      17.057124       464.1479 
 317   0.0000      17.129651       466.1215 
 318   0.0000      17.205102       468.1746 
 319   0.0000      17.252882       469.4748 
 320   0.0000      17.343599       471.9433 
 321   0.0000      17.440160       474.5709 
 322   0.0000      17.490554       475.9422 
 323   0.0000      17.590466       478.6609 
 324   0.0000      17.711291       481.9487 
 325   0.0000      17.754511       483.1248 
 326   0.0000      17.971874       489.0396 
 327   0.0000      18.191216       495.0082 
 328   0.0000      18.250464       496.6204 
 329   0.0000      18.318381       498.4685 
 330   0.0000      18.353872       499.4343 
 331   0.0000      18.818490       512.0771 
 332   0.0000      18.917926       514.7829 
 333   0.0000      18.955927       515.8170 
 334   0.0000      19.166739       521.5535 
 335   0.0000      19.303881       525.2853 
 336   0.0000      19.671416       535.2864 
 337   0.0000      19.892972       541.3153 
 338   0.0000      20.802844       566.0742 
 339   0.0000      20.896756       568.6296 
 340   0.0000      21.325881       580.3067 
 341   0.0000      22.959801       624.7679 
 342   0.0000      23.003884       625.9675 
 343   0.0000      23.030915       626.7031 
 344   0.0000      23.292674       633.8259 
 345   0.0000      23.502622       639.5389 
 346   0.0000      23.623815       642.8367 
 347   0.0000      23.772010       646.8693 
 348   0.0000      23.923256       650.9849 
 349   0.0000      24.104650       655.9209 
 350   0.0000      24.288919       660.9351 
 351   0.0000      26.406205       718.5494 
 352   0.0000      26.896141       731.8812 
 353   0.0000      27.890162       758.9299 
 354   0.0000      30.039930       817.4281 
 355   0.0000      30.723655       836.0332 
 356   0.0000      31.748280       863.9146 
 357   0.0000      32.007980       870.9814 
 358   0.0000      32.075551       872.8201 
 359   0.0000      33.129114       901.4890 
 360   0.0000      34.054341       926.6657 
 361   0.0000      34.864703       948.7168 
 362   0.0000      41.222023      1121.7083 
 363   0.0000      66.516007      1809.9926 
 364   0.0000      66.557900      1811.1325 
 365   0.0000      66.576802      1811.6469 
 366   0.0000      66.674845      1814.3148 
 367   0.0000      66.810013      1817.9929 
 368   0.0000      67.006703      1823.3451 
 369   0.0000      67.049558      1824.5112 
 370   0.0000      67.246543      1829.8715 
 371   0.0000      68.373811      1860.5460 
 372   0.0000      69.653656      1895.3723 
 373   0.0000      90.939585      2474.5919 
 374   0.0000      91.089526      2478.6720 
 375   0.0000      93.398754      2541.5093 
 376   0.0000     142.747236      3884.3498 
 377   0.0000     143.796051      3912.8895 

                    ********************************
                    * MULLIKEN POPULATION ANALYSIS *
                    ********************************

--------------------------------------------
MULLIKEN ATOMIC CHARGES AND SPIN POPULATIONS
--------------------------------------------
   0 O :   -0.023775    0.277283
   1 O :   -0.178465    0.714643
   2 H :    0.202240    0.008074
Sum of atomic charges         :    0.0000000
Sum of atomic spin populations:    1.0000000

-----------------------------------------------------
MULLIKEN REDUCED ORBITAL CHARGES AND SPIN POPULATIONS
-----------------------------------------------------
CHARGE
  0 O s       :     3.790189  s :     3.790189
      pz      :     1.648634  p :     4.147035
      px      :     1.394904
      py      :     1.103497
      dz2     :     0.005190  d :     0.075923
      dxz     :     0.002118
      dyz     :     0.019741
      dx2y2   :     0.013228
      dxy     :     0.035645
      f0      :     0.000852  f :     0.010143
      f+1     :     0.000401
      f-1     :     0.000638
      f+2     :     0.001916
      f-2     :     0.000010
      f+3     :     0.005879
      f-3     :     0.000447
      g0      :    -0.000010  g :     0.000484
      g+1     :    -0.000002
      g-1     :    -0.000059
      g+2     :     0.000066
      g-2     :    -0.000040
      g+3     :     0.000002
      g-3     :     0.000176
      g+4     :    -0.000174
      g-4     :     0.000524
      h0      :    -0.000001  h :     0.000002
      h+1     :     0.000000
      h-1     :     0.000000
      h+2     :    -0.000004
      h-2     :    -0.000000
      h+3     :    -0.000007
      h-3     :    -0.000007
      h+4     :     0.000001
      h-4     :    -0.000001
      h+5     :     0.000061
      h-5     :    -0.000042
  1 O s       :     3.977846  s :     3.977846
      pz      :     1.266413  p :     4.146991
      px      :     1.938557
      py      :     0.942021
      dz2     :     0.003863  d :     0.047355
      dxz     :    -0.000047
      dyz     :     0.015959
      dx2y2   :     0.011775
      dxy     :     0.015806
      f0      :     0.001244  f :     0.006564
      f+1     :     0.000036
      f-1     :     0.000660
      f+2     :     0.001168
      f-2     :    -0.000119
      f+3     :     0.002650
      f-3     :     0.000925
      g0      :     0.000021  g :    -0.000212
      g+1     :    -0.000010
      g-1     :    -0.000136
      g+2     :     0.000042
      g-2     :    -0.000096
      g+3     :    -0.000042
      g-3     :    -0.000084
      g+4     :    -0.000136
      g-4     :     0.000229
      h0      :    -0.000005  h :    -0.000080
      h+1     :    -0.000006
      h-1     :     0.000002
      h+2     :    -0.000013
      h-2     :    -0.000004
      h+3     :    -0.000018
      h-3     :    -0.000002
      h+4     :    -0.000030
      h-4     :    -0.000004
      h+5     :     0.000031
      h-5     :    -0.000030
  2 H s       :     0.690800  s :     0.690800
      pz      :     0.034582  p :     0.085711
      px      :     0.027395
      py      :     0.023734
      dz2     :     0.001349  d :     0.015979
      dxz     :     0.004783
      dyz     :     0.000953
      dx2y2   :     0.003431
      dxy     :     0.005463
      f0      :     0.000678  f :     0.004512
      f+1     :     0.000098
      f-1     :     0.000105
      f+2     :     0.000373
      f-2     :     0.000568
      f+3     :     0.000090
      f-3     :     0.002600
      g0      :    -0.000027  g :     0.000759
      g+1     :     0.000128
      g-1     :     0.000079
      g+2     :     0.000057
      g-2     :    -0.000005
      g+3     :     0.000135
      g-3     :     0.000048
      g+4     :     0.000215
      g-4     :     0.000129

SPIN
  0 O s       :    -0.005902  s :    -0.005902
      pz      :     0.293353  p :     0.277833
      px      :    -0.003548
      py      :    -0.011972
      dz2     :     0.000156  d :     0.005212
      dxz     :     0.000535
      dyz     :     0.008608
      dx2y2   :    -0.000747
      dxy     :    -0.003340
      f0      :    -0.000195  f :     0.000059
      f+1     :    -0.000211
      f-1     :    -0.000368
      f+2     :     0.000511
      f-2     :     0.000013
      f+3     :     0.000275
      f-3     :     0.000034
      g0      :    -0.000050  g :     0.000084
      g+1     :     0.000001
      g-1     :    -0.000180
      g+2     :    -0.000110
      g-2     :    -0.000135
      g+3     :    -0.000000
      g-3     :     0.000114
      g+4     :     0.000071
      g-4     :     0.000373
      h0      :     0.000001  h :    -0.000003
      h+1     :     0.000002
      h-1     :    -0.000011
      h+2     :    -0.000021
      h-2     :    -0.000000
      h+3     :    -0.000009
      h-3     :    -0.000021
      h+4     :    -0.000004
      h-4     :     0.000001
      h+5     :     0.000047
      h-5     :     0.000013
  1 O s       :     0.001285  s :     0.001285
      pz      :     0.693746  p :     0.711518
      px      :     0.003660
      py      :     0.014113
      dz2     :     0.000791  d :     0.003247
      dxz     :    -0.000061
      dyz     :     0.001411
      dx2y2   :     0.000554
      dxy     :     0.000553
      f0      :    -0.000155  f :    -0.000729
      f+1     :    -0.000070
      f-1     :    -0.000447
      f+2     :    -0.000038
      f-2     :     0.000001
      f+3     :    -0.000001
      f-3     :    -0.000018
      g0      :    -0.000063  g :    -0.000596
      g+1     :     0.000002
      g-1     :    -0.000119
      g+2     :    -0.000077
      g-2     :    -0.000130
      g+3     :     0.000011
      g-3     :    -0.000085
      g+4     :    -0.000030
      g-4     :    -0.000105
      h0      :     0.000010  h :    -0.000083
      h+1     :    -0.000004
      h-1     :    -0.000019
      h+2     :    -0.000004
      h-2     :     0.000001
      h+3     :    -0.000014
      h-3     :    -0.000009
      h+4     :    -0.000012
      h-4     :     0.000003
      h+5     :    -0.000027
      h-5     :    -0.000009
  2 H s       :     0.004635  s :     0.004635
      pz      :     0.002120  p :     0.004459
      px      :     0.000004
      py      :     0.002335
      dz2     :    -0.000035  d :    -0.001069
      dxz     :     0.000073
      dyz     :    -0.000156
      dx2y2   :     0.000015
      dxy     :    -0.000965
      f0      :     0.000018  f :    -0.000179
      f+1     :    -0.000081
      f-1     :    -0.000027
      f+2     :     0.000126
      f-2     :     0.000122
      f+3     :    -0.000075
      f-3     :    -0.000263
      g0      :     0.000007  g :     0.000228
      g+1     :     0.000021
      g-1     :     0.000043
      g+2     :    -0.000011
      g-2     :    -0.000011
      g+3     :     0.000164
      g-3     :     0.000021
      g+4     :    -0.000012
      g-4     :     0.000006


                     *******************************
                     * LOEWDIN POPULATION ANALYSIS *
                     *******************************

-------------------------------------------
LOEWDIN ATOMIC CHARGES AND SPIN POPULATIONS
-------------------------------------------
   0 O :    0.593399    0.313665
   1 O :    0.245487    0.633959
   2 H :   -0.838886    0.052376

----------------------------------------------------
LOEWDIN REDUCED ORBITAL CHARGES AND SPIN POPULATIONS
----------------------------------------------------
CHARGE
  0 O s       :     3.040186  s :     3.040186
      pz      :     1.241019  p :     3.606116
      px      :     1.286349
      py      :     1.078748
      dz2     :     0.050429  d :     0.471022
      dxz     :     0.001545
      dyz     :     0.082952
      dx2y2   :     0.162752
      dxy     :     0.173345
      f0      :     0.016698  f :     0.204558
      f+1     :     0.004190
      f-1     :     0.024795
      f+2     :     0.029052
      f-2     :     0.000118
      f+3     :     0.081667
      f-3     :     0.048038
      g0      :     0.003278  g :     0.060695
      g+1     :     0.000077
      g-1     :     0.007831
      g+2     :     0.007008
      g-2     :     0.003518
      g+3     :     0.000046
      g-3     :     0.006679
      g+4     :     0.012153
      g-4     :     0.020105
      h0      :     0.001948  h :     0.024024
      h+1     :     0.000220
      h-1     :     0.002283
      h+2     :     0.002739
      h-2     :     0.000044
      h+3     :     0.001538
      h-3     :     0.002393
      h+4     :     0.001870
      h-4     :     0.000034
      h+5     :     0.007589
      h-5     :     0.003365
  1 O s       :     3.322178  s :     3.322178
      pz      :     1.099537  p :     3.783099
      px      :     1.617650
      py      :     1.065911
      dz2     :     0.042140  d :     0.373142
      dxz     :     0.000195
      dyz     :     0.095021
      dx2y2   :     0.119626
      dxy     :     0.116160
      f0      :     0.020339  f :     0.188002
      f+1     :     0.005761
      f-1     :     0.024189
      f+2     :     0.032443
      f-2     :     0.000127
      f+3     :     0.067175
      f-3     :     0.037968
      g0      :     0.003331  g :     0.063376
      g+1     :     0.000026
      g-1     :     0.009604
      g+2     :     0.006393
      g-2     :     0.005218
      g+3     :     0.000067
      g-3     :     0.006448
      g+4     :     0.011748
      g-4     :     0.020540
      h0      :     0.001915  h :     0.024717
      h+1     :     0.000458
      h-1     :     0.002178
      h+2     :     0.003169
      h-2     :     0.000047
      h+3     :     0.003102
      h-3     :     0.002228
      h+4     :     0.001679
      h-4     :     0.000002
      h+5     :     0.006134
      h-5     :     0.003805
  2 H s       :     0.623842  s :     0.623842
      pz      :     0.129965  p :     0.533159
      px      :     0.273364
      py      :     0.129830
      dz2     :     0.046504  d :     0.439704
      dxz     :     0.113001
      dyz     :     0.022326
      dx2y2   :     0.139834
      dxy     :     0.118039
      f0      :     0.020214  f :     0.173338
      f+1     :     0.012075
      f-1     :     0.012329
      f+2     :     0.020845
      f-2     :     0.014328
      f+3     :     0.050943
      f-3     :     0.042603
      g0      :     0.003592  g :     0.068843
      g+1     :     0.003390
      g-1     :     0.005535
      g+2     :     0.003547
      g-2     :     0.007023
      g+3     :     0.006434
      g-3     :     0.000689
      g+4     :     0.021842
      g-4     :     0.016791

SPIN
  0 O s       :     0.001848  s :     0.001848
      pz      :     0.218588  p :     0.213603
      px      :     0.003249
      py      :    -0.008234
      dz2     :    -0.000028  d :     0.052001
      dxz     :     0.000264
      dyz     :     0.054651
      dx2y2   :     0.000155
      dxy     :    -0.003041
      f0      :     0.012025  f :     0.032810
      f+1     :    -0.000101
      f-1     :    -0.000190
      f+2     :     0.020590
      f-2     :     0.000061
      f+3     :    -0.000316
      f-3     :     0.000742
      g0      :    -0.000090  g :     0.009731
      g+1     :     0.000018
      g-1     :     0.005363
      g+2     :    -0.000114
      g-2     :    -0.000102
      g+3     :     0.000011
      g-3     :     0.004337
      g+4     :     0.000211
      g-4     :     0.000098
      h0      :     0.000873  h :     0.003671
      h+1     :    -0.000006
      h-1     :    -0.000101
      h+2     :     0.001804
      h-2     :     0.000005
      h+3     :    -0.000042
      h-3     :    -0.000055
      h+4     :     0.001001
      h-4     :     0.000012
      h+5     :     0.000090
      h-5     :     0.000089
  1 O s       :     0.006469  s :     0.006469
      pz      :     0.568243  p :     0.578175
      px      :     0.005883
      py      :     0.004049
      dz2     :     0.000848  d :     0.025348
      dxz     :    -0.000002
      dyz     :     0.025763
      dx2y2   :    -0.000382
      dxy     :    -0.000878
      f0      :     0.006904  f :     0.017601
      f+1     :     0.000116
      f-1     :    -0.000382
      f+2     :     0.011106
      f-2     :     0.000036
      f+3     :    -0.000247
      f-3     :     0.000067
      g0      :    -0.000055  g :     0.005004
      g+1     :     0.000015
      g-1     :     0.003156
      g+2     :    -0.000069
      g-2     :    -0.000084
      g+3     :     0.000061
      g-3     :     0.001993
      g+4     :    -0.000004
      g-4     :    -0.000009
      h0      :     0.000441  h :     0.001362
      h+1     :    -0.000007
      h-1     :    -0.000049
      h+2     :     0.000651
      h-2     :     0.000023
      h+3     :    -0.000026
      h-3     :    -0.000032
      h+4     :     0.000324
      h-4     :     0.000001
      h+5     :     0.000037
      h-5     :    -0.000002
  2 H s       :    -0.005268  s :    -0.005268
      pz      :     0.013427  p :     0.011895
      px      :     0.000417
      py      :    -0.001949
      dz2     :    -0.000266  d :     0.020304
      dxz     :     0.017283
      dyz     :     0.004290
      dx2y2   :     0.000108
      dxy     :    -0.001111
      f0      :     0.004242  f :     0.016347
      f+1     :    -0.000121
      f-1     :    -0.000202
      f+2     :     0.009481
      f-2     :     0.003571
      f+3     :    -0.000138
      f-3     :    -0.000485
      g0      :    -0.000072  g :     0.009098
      g+1     :     0.000563
      g-1     :     0.003178
      g+2     :    -0.000063
      g-2     :    -0.000096
      g+3     :     0.005597
      g-3     :     0.000051
      g+4     :    -0.000092
      g-4     :     0.000032


                      *****************************
                      * MAYER POPULATION ANALYSIS *
                      *****************************

  NA   - Mulliken gross atomic population
  ZA   - Total nuclear charge
  QA   - Mulliken gross atomic charge
  VA   - Mayer's total valence
  BVA  - Mayer's bonded valence
  FA   - Mayer's free valence

  ATOM       NA         ZA         QA         VA         BVA        FA
  0 O      8.0238     8.0000    -0.0238     2.4232     2.3172     0.1060
  1 O      8.1785     8.0000    -0.1785     1.8982     1.4040     0.4942
  2 H      0.7978     1.0000     0.2022     1.0382     1.0378     0.0005

  Mayer bond orders larger than 0.1
B(  0-O ,  1-O ) :   1.3417 B(  0-O ,  2-H ) :   0.9755 

-------
TIMINGS
-------

Total SCF time: 0 days 0 hours 11 min 27 sec 

Total time                  ....     687.501 sec
Sum of individual times     ....     686.287 sec  ( 99.8%)

Fock matrix formation       ....     683.122 sec  ( 99.4%)
  XC integration            ....      14.349 sec  (  2.1% of F)
    Basis function eval.    ....       0.905 sec  (  6.3% of XC)
    Density eval.           ....       2.914 sec  ( 20.3% of XC)
    XC-Functional eval.     ....       0.133 sec  (  0.9% of XC)
    XC-Potential eval.      ....       9.674 sec  ( 67.4% of XC)
Diagonalization             ....       1.315 sec  (  0.2%)
Density matrix formation    ....       0.022 sec  (  0.0%)
Population analysis         ....       0.102 sec  (  0.0%)
Initial guess               ....       0.621 sec  (  0.1%)
Orbital Transformation      ....       0.000 sec  (  0.0%)
Orbital Orthonormalization  ....       0.000 sec  (  0.0%)
DIIS solution               ....       0.784 sec  (  0.1%)
Grid generation             ....       0.321 sec  (  0.0%)

-------------------------   --------------------
FINAL SINGLE POINT ENERGY      -150.841445138434
-------------------------   --------------------


                            ***************************************
                            *     ORCA property calculations      *
                            ***************************************

                                    ---------------------
                                    Active property flags
                                    ---------------------
   (+) Dipole Moment


------------------------------------------------------------------------------
                       ORCA ELECTRIC PROPERTIES CALCULATION
------------------------------------------------------------------------------

Dipole Moment Calculation                       ... on
Quadrupole Moment Calculation                   ... off
Polarizability Calculation                      ... off
GBWName                                         ... ho2_pbe_00.gbw
Electron density file                           ... ho2_pbe_00.scfp.tmp
The origin for moment calculation is the CENTER OF MASS  = ( 0.050218,  0.048430  0.000000)

-------------
DIPOLE MOMENT
-------------
                                X             Y             Z
Electronic contribution:      0.21650       0.23204      -0.00000
Nuclear contribution   :     -0.85465      -0.82330       0.00000
                        -----------------------------------------
Total Dipole Moment    :     -0.63815      -0.59126      -0.00000
                        -----------------------------------------
Magnitude (a.u.)       :      0.86996
Magnitude (Debye)      :      2.21125



--------------------
Rotational spectrum 
--------------------
 
Rotational constants in cm-1:    20.665858     1.118966     1.061491 
Rotational constants in MHz : 619546.847976 33545.749135 31822.689817 

 Dipole components along the rotational axes: 
x,y,z [a.u.] :     0.627605     0.602442    -0.000000 
x,y,z [Debye]:     1.595246     1.531285    -0.000000 

 

Timings for individual modules:

Sum of individual times         ...      707.019 sec (=  11.784 min)
GTO integral calculation        ...       10.084 sec (=   0.168 min)   1.4 %
SCF iterations                  ...      696.935 sec (=  11.616 min)  98.6 %
                             ****ORCA TERMINATED NORMALLY****
TOTAL RUN TIME: 0 days 0 hours 11 minutes 53 seconds 423 msec
