
                                 *****************
                                 * O   R   C   A *
                                 *****************

           --- An Ab Initio, DFT and Semiempirical electronic structure package ---

                  #######################################################
                  #                        -***-                        #
                  #          Department of theory and spectroscopy      #
                  #               Directorship: Frank Neese             #
                  #        Max Planck Institute fuer Kohlenforschung    #
                  #                Kaiser Wilhelm Platz 1               #
                  #                 D-45470 Muelheim/Ruhr               #
                  #                      Germany                        #
                  #                                                     #
                  #                  All rights reserved                #
                  #                        -***-                        #
                  #######################################################


                         Program Version 4.1.2  - RELEASE  -


 With contributions from (in alphabetic order):
   Daniel Aravena         : Magnetic Properties
   Michael Atanasov       : Ab Initio Ligand Field Theory
   Alexander A. Auer      : GIAO ZORA
   Ute Becker             : Parallelization
   Giovanni Bistoni       : ED, Open-shell LED
   Martin Brehm           : Molecular dynamics
   Dmytro Bykov           : SCF Hessian
   Vijay G. Chilkuri      : MRCI spin determinant printing
   Dipayan Datta          : RHF DLPNO-CCSD density
   Achintya Kumar Dutta   : EOM-CC, STEOM-CC
   Dmitry Ganyushin       : Spin-Orbit,Spin-Spin,Magnetic field MRCI
   Miquel Garcia          : C-PCM Hessian
   Yang Guo               : DLPNO-NEVPT2, CIM, IAO-localization
   Andreas Hansen         : Spin unrestricted coupled pair/coupled cluster methods
   Benjamin Helmich-Paris : CASSCF linear response (MC-RPA)
   Lee Huntington         : MR-EOM, pCC
   Robert Izsak           : Overlap fitted RIJCOSX, COSX-SCS-MP3, EOM
   Christian Kollmar      : KDIIS, OOCD, Brueckner-CCSD(T), CCSD density
   Simone Kossmann        : Meta GGA functionals, TD-DFT gradient, OOMP2, MP2 Hessian
   Martin Krupicka        : AUTO-CI
   Lucas Lang             : DCDCAS
   Dagmar Lenk            : GEPOL surface, SMD
   Dimitrios Liakos       : Extrapolation schemes; parallel MDCI
   Dimitrios Manganas     : ROCIS; embedding schemes
   Dimitrios Pantazis     : SARC Basis sets
   Taras Petrenko         : DFT Hessian,TD-DFT gradient, ASA, ECA, R-Raman, ABS, FL, XAS/XES, NRVS
   Peter Pinski           : DLPNO-MP2, DLPNO-MP2 Gradient
   Christoph Reimann      : Effective Core Potentials
   Marius Retegan         : Local ZFS, SOC
   Christoph Riplinger    : Optimizer, TS searches, QM/MM, DLPNO-CCSD(T), (RO)-DLPNO pert. Triples
   Tobias Risthaus        : Range-separated hybrids, TD-DFT gradient, RPA, STAB
   Michael Roemelt        : Restricted open shell CIS
   Masaaki Saitow         : Open-shell DLPNO
   Barbara Sandhoefer     : DKH picture change effects
   Avijit Sen             : IP-ROCIS
   Kantharuban Sivalingam : CASSCF convergence, NEVPT2, FIC-MRCI
   Bernardo de Souza      : ESD, SOC TD-DFT
   Georgi Stoychev        : AutoAux, RI-MP2 NMR
   Willem Van den Heuvel  : Paramagnetic NMR
   Boris Wezisla          : Elementary symmetry handling
   Frank Wennmohs         : Technical directorship


 We gratefully acknowledge several colleagues who have allowed us to
 interface, adapt or use parts of their codes:
   Stefan Grimme, W. Hujo, H. Kruse,             : VdW corrections, initial TS optimization,
                  C. Bannwarth                     DFT functionals, gCP, sTDA/sTD-DF
   Ed Valeev                                     : LibInt (2-el integral package), F12 methods
   Garnet Chan, S. Sharma, J. Yang, R. Olivares  : DMRG
   Ulf Ekstrom                                   : XCFun DFT Library
   Mihaly Kallay                                 : mrcc  (arbitrary order and MRCC methods)
   Andreas Klamt, Michael Diedenhofen            : otool_cosmo (COSMO solvation model)
   Jiri Pittner, Ondrej Demel                    : Mk-CCSD
   Frank Weinhold                                : gennbo (NPA and NBO analysis)
   Christopher J. Cramer and Donald G. Truhlar   : smd solvation model
   Lars Goerigk                                  : TD-DFT with DH, B97 family of functionals
   V. Asgeirsson, H. Jonsson                     : NEB implementation
   FAccTs GmbH                                   : IRC, NEB, NEB-TS, Multilevel


 Your calculation uses the libint2 library for the computation of 2-el integrals
 For citations please refer to: http://libint.valeyev.net

 This ORCA versions uses:
   CBLAS   interface :  Fast vector & matrix operations
   LAPACKE interface :  Fast linear algebra routines
   SCALAPACK package :  Parallel linear algebra routines


----- Orbital basis set information -----
Your calculation utilizes the basis: aug-pc-4
   H, C-F              : F. Jensen, J. Chem. Phys. 115, 9113 (2001).
                         F. Jensen, J. Chem. Phys. 116, 7372 (2002).
                         F. Jensen, J. Chem. Phys. 117, 9234 (2002).
   Si-Cl               : F. Jensen, T. Helgaker, J. Chem. Phys. 121, 3463 (2004).
   He-B, Ne-Mg, Al, Ar : F. Jensen, J. Phys. Chem. A 111, 11198 (2007).
   K, Ca, Ga-Kr        : F. Jensen, J. Chem. Phys. 136, 094110 (2012).
   Sc-Zn               : F. Jensen, J. Chem. Phys. 138, 014107 (2013).

================================================================================
                                        WARNINGS
                       Please study these warnings very carefully!
================================================================================


INFO   : the flag for use of LIBINT has been found!

================================================================================
                                       INPUT FILE
================================================================================
NAME = licl_pbe_-0001_x.inp
|  1> !uks pbe nori aug-pc-4 grid5 nofinalgrid verytightscf
|  2> 
|  3> %maxcore 6000
|  4> 
|  5> %pal nprocs 4 end
|  6> 
|  7> %scf
|  8> 	efield -0.001, 0.0, 0.0
|  9> 	maxiter 200
| 10> end
| 11> 
| 12> * xyz 0 1
| 13> Li 0.0000 0.0000 0.0000
| 14> Cl 0.0000 0.0000 2.0207
| 15> *
| 16> 
| 17>                          ****END OF INPUT****
================================================================================

                       ****************************
                       * Single Point Calculation *
                       ****************************

---------------------------------
CARTESIAN COORDINATES (ANGSTROEM)
---------------------------------
  Li     0.000000    0.000000    0.000000
  Cl     0.000000    0.000000    2.020700

----------------------------
CARTESIAN COORDINATES (A.U.)
----------------------------
  NO LB      ZA    FRAG     MASS         X           Y           Z
   0 Li    3.0000    0     6.941    0.000000    0.000000    0.000000
   1 Cl   17.0000    0    35.453    0.000000    0.000000    3.818570

--------------------------------
INTERNAL COORDINATES (ANGSTROEM)
--------------------------------
 Li     0   0   0     0.000000000000     0.00000000     0.00000000
 Cl     1   0   0     2.020700000000     0.00000000     0.00000000

---------------------------
INTERNAL COORDINATES (A.U.)
---------------------------
 Li     0   0   0     0.000000000000     0.00000000     0.00000000
 Cl     1   0   0     3.818569598815     0.00000000     0.00000000

---------------------
BASIS SET INFORMATION
---------------------
There are 2 groups of distinct atoms

 Group   1 Type Li  : 31s9p4d3f2g contracted to 9s5p4d3f2g pattern {12121111111/51111/1111/111/11}
 Group   2 Type Cl  : 44s27p7d4f3g2h contracted to 8s7p7d4f3g2h pattern {15121211111/111111111/1111111/1111/111/11}

Atom   0Li   basis set group =>   1
Atom   1Cl   basis set group =>   2


           ************************************************************
           *        Program running with 4 parallel MPI-processes     *
           *              working on a common directory               *
           ************************************************************
------------------------------------------------------------------------------
                           ORCA GTO INTEGRAL CALCULATION
------------------------------------------------------------------------------

                         BASIS SET STATISTICS AND STARTUP INFO

 # of primitive gaussian shells          ...  136
 # of primitive gaussian functions       ...  354
 # of contracted shells                  ...   54
 # of contracted basis functions         ...  224
 Highest angular momentum                ...    5
 Maximum contraction depth               ...   15
 Integral package used                   ... LIBINT
 Integral threshhold            Thresh   ...  1.000e-12
 Primitive cut-off              TCut     ...  1.000e-14


------------------------------ INTEGRAL EVALUATION ----------------------------


 * One electron integrals 
 Pre-screening matrix                    ... done
 Shell pair data                         ... done (   0.001 sec)


An Electric Field will be added: -1.000e-03 0.000e+00 0.000e+00 au

  ... done adding electric field perturbation



           ************************************************************
           *        Program running with 4 parallel MPI-processes     *
           *              working on a common directory               *
           ************************************************************
-------------------------------------------------------------------------------
                                 ORCA SCF
-------------------------------------------------------------------------------

------------
SCF SETTINGS
------------
Hamiltonian:
 Density Functional     Method          .... DFT(GTOs)
 Exchange Functional    Exchange        .... PBE
   PBE kappa parameter   XKappa         ....  0.804000
   PBE mue parameter    XMuePBE         ....  0.219520
 Correlation Functional Correlation     .... PBE
   PBE beta parameter  CBetaPBE         ....  0.066725
 LDA part of GGA corr.  LDAOpt          .... PW91-LDA
 Gradients option       PostSCFGGA      .... off
   Density functional embedding theory  .... OFF
   NL short-range parameter             ....  6.400000


General Settings:
 Integral files         IntName         .... licl_pbe_-0001_x
 Hartree-Fock type      HFTyp           .... UHF
 Total Charge           Charge          ....    0
 Multiplicity           Mult            ....    1
 Number of Electrons    NEL             ....   20
 Basis Dimension        Dim             ....  224
 Nuclear Repulsion      ENuc            ....     13.3557864222 Eh

Convergence Acceleration:
 DIIS                   CNVDIIS         .... on
   Start iteration      DIISMaxIt       ....    12
   Startup error        DIISStart       ....  0.200000
   # of expansion vecs  DIISMaxEq       ....     5
   Bias factor          DIISBfac        ....   1.050
   Max. coefficient     DIISMaxC        ....  10.000
 Newton-Raphson         CNVNR           .... off
 SOSCF                  CNVSOSCF        .... off
 Level Shifting         CNVShift        .... on
   Level shift para.    LevelShift      ....    0.2500
   Turn off err/grad.   ShiftErr        ....    0.0010
 Zerner damping         CNVZerner       .... off
 Static damping         CNVDamp         .... on
   Fraction old density DampFac         ....    0.7000
   Max. Damping (<1)    DampMax         ....    0.9800
   Min. Damping (>=0)   DampMin         ....    0.0000
   Turn off err/grad.   DampErr         ....    0.1000
 Fernandez-Rico         CNVRico         .... off

SCF Procedure:
 Maximum # iterations   MaxIter         ....   200
 SCF integral mode      SCFMode         .... Direct
   Integral package                     .... LIBINT
 Reset frequency        DirectResetFreq ....    20
 Integral Threshold     Thresh          ....  1.000e-12 Eh
 Primitive CutOff       TCut            ....  1.000e-14 Eh

Convergence Tolerance:
 Convergence Check Mode ConvCheckMode   .... Total+1el-Energy
 Convergence forced     ConvForced      .... 0
 Energy Change          TolE            ....  1.000e-09 Eh
 1-El. energy change                    ....  1.000e-06 Eh
 DIIS Error             TolErr          ....  1.000e-08


Diagonalization of the overlap matrix:
Smallest eigenvalue                        ... 1.441e-05
Time for diagonalization                   ...    0.069 sec
Threshold for overlap eigenvalues          ... 1.000e-08
Number of eigenvalues below threshold      ... 0
Time for construction of square roots      ...    0.011 sec
Total time needed                          ...    0.080 sec

-------------------
DFT GRID GENERATION
-------------------

General Integration Accuracy     IntAcc      ...  5.010
Radial Grid Type                 RadialGrid  ... Gauss-Chebyshev
Angular Grid (max. acc.)         AngularGrid ... Lebedev-434
Angular grid pruning method      GridPruning ... 3 (G Style)
Weight generation scheme         WeightScheme... Becke
Basis function cutoff            BFCut       ...    1.0000e-12
Integration weight cutoff        WCut        ...    1.0000e-14
Grids for H and He will be reduced by one unit

# of grid points (after initial pruning)     ...  22246 (   0.0 sec)
# of grid points (after weights+screening)   ...  22158 (   0.0 sec)
nearest neighbour list constructed           ...    0.0 sec
Grid point re-assignment to atoms done       ...    0.0 sec
Grid point division into batches done        ...    0.2 sec
Reduced shell lists constructed in    0.2 sec

Total number of grid points                  ...    22158
Total number of batches                      ...      347
Average number of points per batch           ...       63
Average number of grid points per atom       ...    11079
Average number of shells per batch           ...    31.51 (58.35%)
Average number of basis functions per batch  ...   126.83 (56.62%)
Average number of large shells per batch     ...    26.61 (84.46%)
Average number of large basis fcns per batch ...   106.27 (83.79%)
Maximum spatial batch extension              ...  32.58, 32.58, 30.97 au
Average spatial batch extension              ...   2.49,  2.44,  2.06 au

Time for grid setup =    0.270 sec

------------------------------
INITIAL GUESS: MODEL POTENTIAL
------------------------------
Loading Hartree-Fock densities                     ... done
Calculating cut-offs                               ... done
Setting up the integral package                    ... done
Initializing the effective Hamiltonian             ... done
Starting the Coulomb interaction                   ... done (   0.0 sec)
Reading the grid                                   ... done
Mapping shells                                     ... done
Starting the XC term evaluation                    ... done (   0.1 sec)
  promolecular density results
     # of electrons  =     20.000032600
     EX              =    -29.120365965
     EC              =     -0.714535439
     EX+EC           =    -29.834901404
Transforming the Hamiltonian                       ... done (   0.0 sec)
Diagonalizing the Hamiltonian                      ... done (   0.0 sec)
Back transforming the eigenvectors                 ... done (   0.0 sec)
Now organizing SCF variables                       ... done
                      ------------------
                      INITIAL GUESS DONE (   0.7 sec)
                      ------------------
--------------
SCF ITERATIONS
--------------
ITER       Energy         Delta-E        Max-DP      RMS-DP      [F,P]     Damp
               ***  Starting incremental Fock matrix formation  ***
  0   -467.5658027234   0.000000000000 0.03910219  0.00035920  0.1354919 0.7000
  1   -467.5881227155  -0.022319992062 0.01973473  0.00023126  0.0691897 0.7000
                               ***Turning on DIIS***
  2   -467.5971732979  -0.009050582379 0.02191071  0.00035014  0.0241344 0.0000
  3   -467.6064124966  -0.009239198689 0.02178515  0.00018668  0.0514588 0.0000
  4   -467.6118534452  -0.005440948640 0.00349645  0.00005557  0.0144417 0.0000
  5   -467.6123104643  -0.000457019049 0.00086459  0.00001620  0.0054523 0.0000
  6   -467.6123865002  -0.000076035997 0.00030427  0.00000692  0.0020089 0.0000
  7   -467.6123988064  -0.000012306172 0.00037085  0.00000649  0.0009499 0.0000
  8   -467.6124028383  -0.000004031921 0.00004232  0.00000084  0.0002177 0.0000
  9   -467.6124028902  -0.000000051809 0.00001651  0.00000029  0.0001184 0.0000
 10   -467.6124029080  -0.000000017844 0.00000321  0.00000004  0.0000045 0.0000
 11   -467.6124029080  -0.000000000024 0.00000147  0.00000001  0.0000005 0.0000
 12   -467.6124029080  -0.000000000001 0.00000031  0.00000000  0.0000002 0.0000
 13   -467.6124029080   0.000000000002 0.00000025  0.00000000  0.0000001 0.0000
                 **** Energy Check signals convergence ****

               *****************************************************
               *                     SUCCESS                       *
               *           SCF CONVERGED AFTER  14 CYCLES          *
               *****************************************************


----------------
TOTAL SCF ENERGY
----------------

Total Energy       :         -467.61240291 Eh          -12724.38038 eV

Components:
Nuclear Repulsion  :           13.35578642 Eh             363.42942 eV
Electronic Energy  :         -480.96818933 Eh          -13087.80980 eV
One Electron Energy:         -673.67166162 Eh          -18331.53787 eV
Two Electron Energy:          192.70347229 Eh            5243.72807 eV

Virial components:
Potential Energy   :         -934.79207579 Eh          -25436.98557 eV
Kinetic Energy     :          467.17967288 Eh           12712.60520 eV
Virial Ratio       :            2.00092626


DFT components:
N(Alpha)           :       10.000012498641 electrons
N(Beta)            :       10.000012498641 electrons
N(Total)           :       20.000024997281 electrons
E(X)               :      -29.241015876282 Eh       
E(C)               :       -0.728730090449 Eh       
E(XC)              :      -29.969745966731 Eh       
DFET-embed. en.    :        0.000000000000 Eh       

---------------
SCF CONVERGENCE
---------------

  Last Energy change         ...    4.7748e-12  Tolerance :   1.0000e-09
  Last MAX-Density change    ...    4.2236e-06  Tolerance :   1.0000e-08
  Last RMS-Density change    ...    3.9760e-08  Tolerance :   1.0000e-09
  Last DIIS Error            ...    1.1791e-08  Tolerance :   1.0000e-08

             **** THE GBW FILE WAS UPDATED (licl_pbe_-0001_x.gbw) ****
             **** DENSITY FILE WAS UPDATED (licl_pbe_-0001_x.scfp.tmp) ****
             **** ENERGY FILE WAS UPDATED (licl_pbe_-0001_x.en.tmp) ****
----------------------
UHF SPIN CONTAMINATION
----------------------

Warning: in a DFT calculation there is little theoretical justification to 
         calculate <S**2> as in Hartree-Fock theory. We will do it anyways
         but you should keep in mind that the values have only limited relevance

Expectation value of <S**2>     :     0.000000
Ideal value S*(S+1) for S=0.0   :     0.000000
Deviation                       :     0.000000

----------------
ORBITAL ENERGIES
----------------
                 SPIN UP ORBITALS
  NO   OCC          E(Eh)            E(eV) 
   0   1.0000    -100.553351     -2736.1958 
   1   1.0000      -9.078633      -247.0422 
   2   1.0000      -6.894829      -187.6178 
   3   1.0000      -6.894238      -187.6017 
   4   1.0000      -6.894237      -187.6017 
   5   1.0000      -1.897181       -51.6249 
   6   1.0000      -0.643504       -17.5106 
   7   1.0000      -0.237423        -6.4606 
   8   1.0000      -0.216016        -5.8781 
   9   1.0000      -0.216013        -5.8780 
  10   0.0000      -0.066241        -1.8025 
  11   0.0000      -0.008605        -0.2342 
  12   0.0000      -0.007706        -0.2097 
  13   0.0000       0.002342         0.0637 
  14   0.0000       0.007895         0.2148 
  15   0.0000       0.020962         0.5704 
  16   0.0000       0.022851         0.6218 
  17   0.0000       0.034115         0.9283 
  18   0.0000       0.042085         1.1452 
  19   0.0000       0.047909         1.3037 
  20   0.0000       0.048034         1.3071 
  21   0.0000       0.049253         1.3402 
  22   0.0000       0.051768         1.4087 
  23   0.0000       0.052614         1.4317 
  24   0.0000       0.069013         1.8779 
  25   0.0000       0.069465         1.8902 
  26   0.0000       0.079549         2.1646 
  27   0.0000       0.098848         2.6898 
  28   0.0000       0.098848         2.6898 
  29   0.0000       0.102487         2.7888 
  30   0.0000       0.102647         2.7932 
  31   0.0000       0.104647         2.8476 
  32   0.0000       0.104648         2.8476 
  33   0.0000       0.108838         2.9616 
  34   0.0000       0.125882         3.4254 
  35   0.0000       0.138294         3.7632 
  36   0.0000       0.138318         3.7638 
  37   0.0000       0.154771         4.2115 
  38   0.0000       0.161706         4.4002 
  39   0.0000       0.161707         4.4003 
  40   0.0000       0.161747         4.4013 
  41   0.0000       0.166133         4.5207 
  42   0.0000       0.166346         4.5265 
  43   0.0000       0.166737         4.5371 
  44   0.0000       0.166737         4.5371 
  45   0.0000       0.169894         4.6230 
  46   0.0000       0.169894         4.6230 
  47   0.0000       0.181488         4.9385 
  48   0.0000       0.181511         4.9392 
  49   0.0000       0.186268         5.0686 
  50   0.0000       0.188205         5.1213 
  51   0.0000       0.189585         5.1589 
  52   0.0000       0.221118         6.0169 
  53   0.0000       0.258421         7.0320 
  54   0.0000       0.258430         7.0322 
  55   0.0000       0.279332         7.6010 
  56   0.0000       0.307405         8.3649 
  57   0.0000       0.307406         8.3649 
  58   0.0000       0.315671         8.5898 
  59   0.0000       0.315797         8.5933 
  60   0.0000       0.330095         8.9824 
  61   0.0000       0.337400         9.1811 
  62   0.0000       0.386731        10.5235 
  63   0.0000       0.386731        10.5235 
  64   0.0000       0.396079        10.7778 
  65   0.0000       0.396098        10.7784 
  66   0.0000       0.401669        10.9300 
  67   0.0000       0.401670        10.9300 
  68   0.0000       0.420763        11.4495 
  69   0.0000       0.420763        11.4496 
  70   0.0000       0.421078        11.4581 
  71   0.0000       0.428210        11.6522 
  72   0.0000       0.428244        11.6531 
  73   0.0000       0.468028        12.7357 
  74   0.0000       0.525807        14.3079 
  75   0.0000       0.525827        14.3085 
  76   0.0000       0.540542        14.7089 
  77   0.0000       0.540542        14.7089 
  78   0.0000       0.568734        15.4760 
  79   0.0000       0.573242        15.5987 
  80   0.0000       0.573242        15.5987 
  81   0.0000       0.619990        16.8708 
  82   0.0000       0.619990        16.8708 
  83   0.0000       0.626146        17.0383 
  84   0.0000       0.629114        17.1191 
  85   0.0000       0.629138        17.1197 
  86   0.0000       0.681529        18.5454 
  87   0.0000       0.748257        20.3611 
  88   0.0000       0.748270        20.3615 
  89   0.0000       0.762594        20.7513 
  90   0.0000       0.768191        20.9035 
  91   0.0000       0.768191        20.9035 
  92   0.0000       0.808644        22.0043 
  93   0.0000       0.808644        22.0043 
  94   0.0000       0.813609        22.1394 
  95   0.0000       0.813609        22.1394 
  96   0.0000       0.841348        22.8942 
  97   0.0000       0.841348        22.8942 
  98   0.0000       0.842084        22.9143 
  99   0.0000       0.851707        23.1761 
 100   0.0000       0.851725        23.1766 
 101   0.0000       0.906305        24.6618 
 102   0.0000       0.906305        24.6618 
 103   0.0000       0.911762        24.8103 
 104   0.0000       0.944077        25.6897 
 105   0.0000       0.944084        25.6898 
 106   0.0000       0.970219        26.4010 
 107   0.0000       0.970219        26.4010 
 108   0.0000       0.988616        26.9016 
 109   0.0000       0.988616        26.9016 
 110   0.0000       1.018552        27.7162 
 111   0.0000       1.068218        29.0677 
 112   0.0000       1.068222        29.0678 
 113   0.0000       1.109092        30.1799 
 114   0.0000       1.109093        30.1799 
 115   0.0000       1.133663        30.8485 
 116   0.0000       1.133670        30.8487 
 117   0.0000       1.149202        31.2714 
 118   0.0000       1.281804        34.8797 
 119   0.0000       1.349255        36.7151 
 120   0.0000       1.349255        36.7151 
 121   0.0000       1.454395        39.5761 
 122   0.0000       1.454397        39.5761 
 123   0.0000       1.517477        41.2926 
 124   0.0000       1.529346        41.6156 
 125   0.0000       1.529346        41.6156 
 126   0.0000       1.761664        47.9373 
 127   0.0000       1.761667        47.9374 
 128   0.0000       1.835309        49.9413 
 129   0.0000       1.875622        51.0383 
 130   0.0000       1.875654        51.0391 
 131   0.0000       1.881513        51.1986 
 132   0.0000       1.971876        53.6575 
 133   0.0000       2.017121        54.8886 
 134   0.0000       2.209580        60.1257 
 135   0.0000       2.209581        60.1258 
 136   0.0000       2.297064        62.5063 
 137   0.0000       2.297065        62.5063 
 138   0.0000       2.332698        63.4759 
 139   0.0000       2.332698        63.4759 
 140   0.0000       2.402677        65.3802 
 141   0.0000       2.402678        65.3802 
 142   0.0000       2.499651        68.0190 
 143   0.0000       2.506786        68.2131 
 144   0.0000       2.506786        68.2131 
 145   0.0000       2.680477        72.9395 
 146   0.0000       2.680477        72.9395 
 147   0.0000       2.695629        73.3518 
 148   0.0000       2.695631        73.3518 
 149   0.0000       2.718081        73.9627 
 150   0.0000       2.718081        73.9627 
 151   0.0000       2.798401        76.1483 
 152   0.0000       2.922086        79.5140 
 153   0.0000       2.922093        79.5142 
 154   0.0000       2.990220        81.3680 
 155   0.0000       2.990220        81.3680 
 156   0.0000       3.026744        82.3619 
 157   0.0000       3.026744        82.3619 
 158   0.0000       3.146645        85.6246 
 159   0.0000       3.346327        91.0582 
 160   0.0000       3.346328        91.0582 
 161   0.0000       3.580694        97.4356 
 162   0.0000       3.580694        97.4356 
 163   0.0000       3.591874        97.7399 
 164   0.0000       3.746695       101.9528 
 165   0.0000       3.746696       101.9528 
 166   0.0000       3.765028       102.4516 
 167   0.0000       3.765029       102.4516 
 168   0.0000       4.065639       110.6317 
 169   0.0000       4.065639       110.6317 
 170   0.0000       4.089232       111.2737 
 171   0.0000       4.214550       114.6837 
 172   0.0000       4.838969       131.6751 
 173   0.0000       4.838970       131.6751 
 174   0.0000       5.006793       136.2418 
 175   0.0000       5.235814       142.4737 
 176   0.0000       5.235815       142.4738 
 177   0.0000       5.437601       147.9647 
 178   0.0000       5.437602       147.9647 
 179   0.0000       5.756209       156.6344 
 180   0.0000       5.756224       156.6348 
 181   0.0000       5.760944       156.7633 
 182   0.0000       5.760944       156.7633 
 183   0.0000       5.773159       157.0956 
 184   0.0000       5.773159       157.0956 
 185   0.0000       5.827290       158.5686 
 186   0.0000       5.827304       158.5690 
 187   0.0000       5.872871       159.8089 
 188   0.0000       5.872871       159.8090 
 189   0.0000       5.912998       160.9009 
 190   0.0000       5.917719       161.0293 
 191   0.0000       5.917728       161.0296 
 192   0.0000       6.054075       164.7398 
 193   0.0000       6.302930       171.5115 
 194   0.0000       6.302931       171.5115 
 195   0.0000       6.342718       172.5941 
 196   0.0000       9.184401       249.9203 
 197   0.0000       9.184658       249.9273 
 198   0.0000       9.190372       250.0827 
 199   0.0000       9.190372       250.0827 
 200   0.0000       9.289484       252.7797 
 201   0.0000       9.289489       252.7798 
 202   0.0000       9.325652       253.7639 
 203   0.0000       9.558414       260.0977 
 204   0.0000       9.558415       260.0977 
 205   0.0000      10.667297       290.2719 
 206   0.0000      12.927507       351.7754 
 207   0.0000      12.927507       351.7754 
 208   0.0000      12.974416       353.0518 
 209   0.0000      12.974505       353.0542 
 210   0.0000      13.084138       356.0375 
 211   0.0000      13.084139       356.0375 
 212   0.0000      13.168186       358.3246 
 213   0.0000      17.686220       481.2665 
 214   0.0000      17.686301       481.2687 
 215   0.0000      17.781964       483.8718 
 216   0.0000      17.781965       483.8719 
 217   0.0000      17.991804       489.5819 
 218   0.0000      38.586854      1050.0017 
 219   0.0000      65.884814      1792.8169 
 220   0.0000      65.884852      1792.8180 
 221   0.0000      65.943272      1794.4076 
 222   0.0000      65.943272      1794.4077 
 223   0.0000      66.075809      1798.0142 

                 SPIN DOWN ORBITALS
  NO   OCC          E(Eh)            E(eV) 
   0   1.0000    -100.553351     -2736.1958 
   1   1.0000      -9.078633      -247.0422 
   2   1.0000      -6.894829      -187.6178 
   3   1.0000      -6.894238      -187.6017 
   4   1.0000      -6.894237      -187.6017 
   5   1.0000      -1.897181       -51.6249 
   6   1.0000      -0.643504       -17.5106 
   7   1.0000      -0.237423        -6.4606 
   8   1.0000      -0.216016        -5.8781 
   9   1.0000      -0.216013        -5.8780 
  10   0.0000      -0.066241        -1.8025 
  11   0.0000      -0.008605        -0.2342 
  12   0.0000      -0.007706        -0.2097 
  13   0.0000       0.002342         0.0637 
  14   0.0000       0.007895         0.2148 
  15   0.0000       0.020962         0.5704 
  16   0.0000       0.022851         0.6218 
  17   0.0000       0.034115         0.9283 
  18   0.0000       0.042085         1.1452 
  19   0.0000       0.047909         1.3037 
  20   0.0000       0.048034         1.3071 
  21   0.0000       0.049253         1.3402 
  22   0.0000       0.051768         1.4087 
  23   0.0000       0.052614         1.4317 
  24   0.0000       0.069013         1.8779 
  25   0.0000       0.069465         1.8902 
  26   0.0000       0.079549         2.1646 
  27   0.0000       0.098848         2.6898 
  28   0.0000       0.098848         2.6898 
  29   0.0000       0.102487         2.7888 
  30   0.0000       0.102647         2.7932 
  31   0.0000       0.104647         2.8476 
  32   0.0000       0.104648         2.8476 
  33   0.0000       0.108838         2.9616 
  34   0.0000       0.125882         3.4254 
  35   0.0000       0.138294         3.7632 
  36   0.0000       0.138318         3.7638 
  37   0.0000       0.154771         4.2115 
  38   0.0000       0.161706         4.4002 
  39   0.0000       0.161707         4.4003 
  40   0.0000       0.161747         4.4013 
  41   0.0000       0.166133         4.5207 
  42   0.0000       0.166346         4.5265 
  43   0.0000       0.166737         4.5371 
  44   0.0000       0.166737         4.5371 
  45   0.0000       0.169894         4.6230 
  46   0.0000       0.169894         4.6230 
  47   0.0000       0.181488         4.9385 
  48   0.0000       0.181511         4.9392 
  49   0.0000       0.186268         5.0686 
  50   0.0000       0.188205         5.1213 
  51   0.0000       0.189585         5.1589 
  52   0.0000       0.221118         6.0169 
  53   0.0000       0.258421         7.0320 
  54   0.0000       0.258430         7.0322 
  55   0.0000       0.279332         7.6010 
  56   0.0000       0.307405         8.3649 
  57   0.0000       0.307406         8.3649 
  58   0.0000       0.315671         8.5898 
  59   0.0000       0.315797         8.5933 
  60   0.0000       0.330095         8.9824 
  61   0.0000       0.337400         9.1811 
  62   0.0000       0.386731        10.5235 
  63   0.0000       0.386731        10.5235 
  64   0.0000       0.396079        10.7778 
  65   0.0000       0.396098        10.7784 
  66   0.0000       0.401669        10.9300 
  67   0.0000       0.401670        10.9300 
  68   0.0000       0.420763        11.4495 
  69   0.0000       0.420763        11.4496 
  70   0.0000       0.421078        11.4581 
  71   0.0000       0.428210        11.6522 
  72   0.0000       0.428244        11.6531 
  73   0.0000       0.468028        12.7357 
  74   0.0000       0.525807        14.3079 
  75   0.0000       0.525827        14.3085 
  76   0.0000       0.540542        14.7089 
  77   0.0000       0.540542        14.7089 
  78   0.0000       0.568734        15.4760 
  79   0.0000       0.573242        15.5987 
  80   0.0000       0.573242        15.5987 
  81   0.0000       0.619990        16.8708 
  82   0.0000       0.619990        16.8708 
  83   0.0000       0.626146        17.0383 
  84   0.0000       0.629114        17.1191 
  85   0.0000       0.629138        17.1197 
  86   0.0000       0.681529        18.5454 
  87   0.0000       0.748257        20.3611 
  88   0.0000       0.748270        20.3615 
  89   0.0000       0.762594        20.7513 
  90   0.0000       0.768191        20.9035 
  91   0.0000       0.768191        20.9035 
  92   0.0000       0.808644        22.0043 
  93   0.0000       0.808644        22.0043 
  94   0.0000       0.813609        22.1394 
  95   0.0000       0.813609        22.1394 
  96   0.0000       0.841348        22.8942 
  97   0.0000       0.841348        22.8942 
  98   0.0000       0.842084        22.9143 
  99   0.0000       0.851707        23.1761 
 100   0.0000       0.851725        23.1766 
 101   0.0000       0.906305        24.6618 
 102   0.0000       0.906305        24.6618 
 103   0.0000       0.911762        24.8103 
 104   0.0000       0.944077        25.6897 
 105   0.0000       0.944084        25.6898 
 106   0.0000       0.970219        26.4010 
 107   0.0000       0.970219        26.4010 
 108   0.0000       0.988616        26.9016 
 109   0.0000       0.988616        26.9016 
 110   0.0000       1.018552        27.7162 
 111   0.0000       1.068218        29.0677 
 112   0.0000       1.068222        29.0678 
 113   0.0000       1.109092        30.1799 
 114   0.0000       1.109093        30.1799 
 115   0.0000       1.133663        30.8485 
 116   0.0000       1.133670        30.8487 
 117   0.0000       1.149202        31.2714 
 118   0.0000       1.281804        34.8797 
 119   0.0000       1.349255        36.7151 
 120   0.0000       1.349255        36.7151 
 121   0.0000       1.454395        39.5761 
 122   0.0000       1.454397        39.5761 
 123   0.0000       1.517477        41.2926 
 124   0.0000       1.529346        41.6156 
 125   0.0000       1.529346        41.6156 
 126   0.0000       1.761664        47.9373 
 127   0.0000       1.761667        47.9374 
 128   0.0000       1.835309        49.9413 
 129   0.0000       1.875622        51.0383 
 130   0.0000       1.875654        51.0391 
 131   0.0000       1.881513        51.1986 
 132   0.0000       1.971876        53.6575 
 133   0.0000       2.017121        54.8886 
 134   0.0000       2.209580        60.1257 
 135   0.0000       2.209581        60.1258 
 136   0.0000       2.297064        62.5063 
 137   0.0000       2.297065        62.5063 
 138   0.0000       2.332698        63.4759 
 139   0.0000       2.332698        63.4759 
 140   0.0000       2.402677        65.3802 
 141   0.0000       2.402678        65.3802 
 142   0.0000       2.499651        68.0190 
 143   0.0000       2.506786        68.2131 
 144   0.0000       2.506786        68.2131 
 145   0.0000       2.680477        72.9395 
 146   0.0000       2.680477        72.9395 
 147   0.0000       2.695629        73.3518 
 148   0.0000       2.695631        73.3518 
 149   0.0000       2.718081        73.9627 
 150   0.0000       2.718081        73.9627 
 151   0.0000       2.798401        76.1483 
 152   0.0000       2.922086        79.5140 
 153   0.0000       2.922093        79.5142 
 154   0.0000       2.990220        81.3680 
 155   0.0000       2.990220        81.3680 
 156   0.0000       3.026744        82.3619 
 157   0.0000       3.026744        82.3619 
 158   0.0000       3.146645        85.6246 
 159   0.0000       3.346327        91.0582 
 160   0.0000       3.346328        91.0582 
 161   0.0000       3.580694        97.4356 
 162   0.0000       3.580694        97.4356 
 163   0.0000       3.591874        97.7399 
 164   0.0000       3.746695       101.9528 
 165   0.0000       3.746696       101.9528 
 166   0.0000       3.765028       102.4516 
 167   0.0000       3.765029       102.4516 
 168   0.0000       4.065639       110.6317 
 169   0.0000       4.065639       110.6317 
 170   0.0000       4.089232       111.2737 
 171   0.0000       4.214550       114.6837 
 172   0.0000       4.838969       131.6751 
 173   0.0000       4.838970       131.6751 
 174   0.0000       5.006793       136.2418 
 175   0.0000       5.235814       142.4737 
 176   0.0000       5.235815       142.4738 
 177   0.0000       5.437601       147.9647 
 178   0.0000       5.437602       147.9647 
 179   0.0000       5.756209       156.6344 
 180   0.0000       5.756224       156.6348 
 181   0.0000       5.760944       156.7633 
 182   0.0000       5.760944       156.7633 
 183   0.0000       5.773159       157.0956 
 184   0.0000       5.773159       157.0956 
 185   0.0000       5.827290       158.5686 
 186   0.0000       5.827304       158.5690 
 187   0.0000       5.872871       159.8089 
 188   0.0000       5.872871       159.8090 
 189   0.0000       5.912998       160.9009 
 190   0.0000       5.917719       161.0293 
 191   0.0000       5.917728       161.0296 
 192   0.0000       6.054075       164.7398 
 193   0.0000       6.302930       171.5115 
 194   0.0000       6.302931       171.5115 
 195   0.0000       6.342718       172.5941 
 196   0.0000       9.184401       249.9203 
 197   0.0000       9.184658       249.9273 
 198   0.0000       9.190372       250.0827 
 199   0.0000       9.190372       250.0827 
 200   0.0000       9.289484       252.7797 
 201   0.0000       9.289489       252.7798 
 202   0.0000       9.325652       253.7639 
 203   0.0000       9.558414       260.0977 
 204   0.0000       9.558415       260.0977 
 205   0.0000      10.667297       290.2719 
 206   0.0000      12.927507       351.7754 
 207   0.0000      12.927507       351.7754 
 208   0.0000      12.974416       353.0518 
 209   0.0000      12.974505       353.0542 
 210   0.0000      13.084138       356.0375 
 211   0.0000      13.084139       356.0375 
 212   0.0000      13.168186       358.3246 
 213   0.0000      17.686220       481.2665 
 214   0.0000      17.686301       481.2687 
 215   0.0000      17.781964       483.8718 
 216   0.0000      17.781965       483.8719 
 217   0.0000      17.991804       489.5819 
 218   0.0000      38.586854      1050.0017 
 219   0.0000      65.884814      1792.8169 
 220   0.0000      65.884852      1792.8180 
 221   0.0000      65.943272      1794.4076 
 222   0.0000      65.943272      1794.4077 
 223   0.0000      66.075809      1798.0142 

                    ********************************
                    * MULLIKEN POPULATION ANALYSIS *
                    ********************************

--------------------------------------------
MULLIKEN ATOMIC CHARGES AND SPIN POPULATIONS
--------------------------------------------
   0 Li:    0.606811   -0.000000
   1 Cl:   -0.606811    0.000000
Sum of atomic charges         :   -0.0000000
Sum of atomic spin populations:    0.0000000

-----------------------------------------------------
MULLIKEN REDUCED ORBITAL CHARGES AND SPIN POPULATIONS
-----------------------------------------------------
CHARGE
  0 Lis       :     2.086827  s :     2.086827
      pz      :     0.119080  p :     0.247609
      px      :     0.064275
      py      :     0.064254
      dz2     :     0.011632  d :     0.050303
      dxz     :     0.019336
      dyz     :     0.019333
      dx2y2   :     0.000001
      dxy     :     0.000001
      f0      :     0.001410  f :     0.008555
      f+1     :     0.003573
      f-1     :     0.003572
      f+2     :     0.000000
      f-2     :     0.000000
      f+3     :     0.000000
      f-3     :     0.000000
      g0      :     0.000046  g :    -0.000106
      g+1     :    -0.000076
      g-1     :    -0.000076
      g+2     :     0.000000
      g-2     :     0.000000
      g+3     :     0.000000
      g-3     :     0.000000
      g+4     :     0.000000
      g-4     :     0.000000
  1 Cls       :     5.963117  s :     5.963117
      pz      :     3.809705  p :    11.629538
      px      :     3.909893
      py      :     3.909940
      dz2     :     0.004093  d :     0.009738
      dxz     :     0.002821
      dyz     :     0.002816
      dx2y2   :     0.000004
      dxy     :     0.000004
      f0      :     0.002430  f :     0.002766
      f+1     :     0.000169
      f-1     :     0.000168
      f+2     :     0.000000
      f-2     :     0.000000
      f+3     :     0.000000
      f-3     :     0.000000
      g0      :     0.001262  g :     0.001245
      g+1     :    -0.000009
      g-1     :    -0.000009
      g+2     :     0.000000
      g-2     :     0.000000
      g+3     :     0.000000
      g-3     :     0.000000
      g+4     :     0.000000
      g-4     :     0.000000
      h0      :     0.000415  h :     0.000407
      h+1     :    -0.000004
      h-1     :    -0.000004
      h+2     :    -0.000000
      h-2     :    -0.000000
      h+3     :     0.000000
      h-3     :     0.000000
      h+4     :     0.000000
      h-4     :    -0.000000
      h+5     :     0.000000
      h-5     :     0.000000

SPIN
  0 Lis       :    -0.000000  s :    -0.000000
      pz      :    -0.000000  p :    -0.000000
      px      :    -0.000000
      py      :    -0.000000
      dz2     :    -0.000000  d :    -0.000000
      dxz     :    -0.000000
      dyz     :    -0.000000
      dx2y2   :    -0.000000
      dxy     :    -0.000000
      f0      :    -0.000000  f :    -0.000000
      f+1     :    -0.000000
      f-1     :     0.000000
      f+2     :    -0.000000
      f-2     :     0.000000
      f+3     :     0.000000
      f-3     :    -0.000000
      g0      :    -0.000000  g :    -0.000000
      g+1     :    -0.000000
      g-1     :     0.000000
      g+2     :     0.000000
      g-2     :     0.000000
      g+3     :    -0.000000
      g-3     :    -0.000000
      g+4     :     0.000000
      g-4     :     0.000000
  1 Cls       :     0.000000  s :     0.000000
      pz      :     0.000000  p :     0.000000
      px      :     0.000000
      py      :     0.000000
      dz2     :     0.000000  d :     0.000000
      dxz     :    -0.000000
      dyz     :     0.000000
      dx2y2   :    -0.000000
      dxy     :    -0.000000
      f0      :     0.000000  f :     0.000000
      f+1     :    -0.000000
      f-1     :     0.000000
      f+2     :    -0.000000
      f-2     :     0.000000
      f+3     :    -0.000000
      f-3     :    -0.000000
      g0      :     0.000000  g :     0.000000
      g+1     :    -0.000000
      g-1     :     0.000000
      g+2     :     0.000000
      g-2     :     0.000000
      g+3     :    -0.000000
      g-3     :     0.000000
      g+4     :     0.000000
      g-4     :     0.000000
      h0      :     0.000000  h :     0.000000
      h+1     :    -0.000000
      h-1     :    -0.000000
      h+2     :     0.000000
      h-2     :     0.000000
      h+3     :     0.000000
      h-3     :     0.000000
      h+4     :    -0.000000
      h-4     :    -0.000000
      h+5     :     0.000000
      h-5     :    -0.000000


                     *******************************
                     * LOEWDIN POPULATION ANALYSIS *
                     *******************************

-------------------------------------------
LOEWDIN ATOMIC CHARGES AND SPIN POPULATIONS
-------------------------------------------
   0 Li:   -0.241335   -0.000000
   1 Cl:    0.241335    0.000000

----------------------------------------------------
LOEWDIN REDUCED ORBITAL CHARGES AND SPIN POPULATIONS
----------------------------------------------------
CHARGE
  0 Lis       :     2.091732  s :     2.091732
      pz      :     0.306417  p :     0.515298
      px      :     0.104450
      py      :     0.104431
      dz2     :     0.180147  d :     0.385146
      dxz     :     0.102497
      dyz     :     0.102499
      dx2y2   :     0.000002
      dxy     :     0.000002
      f0      :     0.082054  f :     0.216414
      f+1     :     0.067178
      f-1     :     0.067182
      f+2     :     0.000000
      f-2     :     0.000000
      f+3     :     0.000000
      f-3     :     0.000000
      g0      :     0.013810  g :     0.032744
      g+1     :     0.009467
      g-1     :     0.009468
      g+2     :     0.000000
      g-2     :     0.000000
      g+3     :     0.000000
      g-3     :     0.000000
      g+4     :     0.000000
      g-4     :     0.000000
  1 Cls       :     5.538623  s :     5.538623
      pz      :     3.707045  p :    11.132241
      px      :     3.712581
      py      :     3.712614
      dz2     :     0.021150  d :     0.024597
      dxz     :     0.001722
      dyz     :     0.001718
      dx2y2   :     0.000004
      dxy     :     0.000004
      f0      :     0.018146  f :     0.020063
      f+1     :     0.000958
      f-1     :     0.000958
      f+2     :     0.000000
      f-2     :     0.000000
      f+3     :     0.000000
      f-3     :     0.000000
      g0      :     0.020765  g :     0.022449
      g+1     :     0.000842
      g-1     :     0.000842
      g+2     :     0.000000
      g-2     :     0.000000
      g+3     :     0.000000
      g-3     :     0.000000
      g+4     :     0.000000
      g-4     :     0.000000
      h0      :     0.020127  h :     0.020692
      h+1     :     0.000282
      h-1     :     0.000282
      h+2     :     0.000000
      h-2     :     0.000000
      h+3     :     0.000000
      h-3     :     0.000000
      h+4     :     0.000000
      h-4     :     0.000000
      h+5     :     0.000000
      h-5     :     0.000000

SPIN
  0 Lis       :    -0.000000  s :    -0.000000
      pz      :     0.000000  p :     0.000000
      px      :     0.000000
      py      :    -0.000000
      dz2     :    -0.000000  d :    -0.000000
      dxz     :     0.000000
      dyz     :    -0.000000
      dx2y2   :    -0.000000
      dxy     :    -0.000000
      f0      :     0.000000  f :     0.000000
      f+1     :    -0.000000
      f-1     :     0.000000
      f+2     :    -0.000000
      f-2     :     0.000000
      f+3     :     0.000000
      f-3     :    -0.000000
      g0      :    -0.000000  g :    -0.000000
      g+1     :     0.000000
      g-1     :     0.000000
      g+2     :    -0.000000
      g-2     :    -0.000000
      g+3     :    -0.000000
      g-3     :    -0.000000
      g+4     :     0.000000
      g-4     :     0.000000
  1 Cls       :     0.000000  s :     0.000000
      pz      :     0.000000  p :     0.000000
      px      :     0.000000
      py      :     0.000000
      dz2     :    -0.000000  d :    -0.000000
      dxz     :    -0.000000
      dyz     :     0.000000
      dx2y2   :    -0.000000
      dxy     :    -0.000000
      f0      :    -0.000000  f :    -0.000000
      f+1     :     0.000000
      f-1     :    -0.000000
      f+2     :    -0.000000
      f-2     :     0.000000
      f+3     :    -0.000000
      f-3     :    -0.000000
      g0      :     0.000000  g :     0.000000
      g+1     :    -0.000000
      g-1     :     0.000000
      g+2     :    -0.000000
      g-2     :    -0.000000
      g+3     :    -0.000000
      g-3     :    -0.000000
      g+4     :     0.000000
      g-4     :     0.000000
      h0      :    -0.000000  h :    -0.000000
      h+1     :    -0.000000
      h-1     :    -0.000000
      h+2     :     0.000000
      h-2     :     0.000000
      h+3     :     0.000000
      h-3     :     0.000000
      h+4     :    -0.000000
      h-4     :    -0.000000
      h+5     :     0.000000
      h-5     :    -0.000000


                      *****************************
                      * MAYER POPULATION ANALYSIS *
                      *****************************

  NA   - Mulliken gross atomic population
  ZA   - Total nuclear charge
  QA   - Mulliken gross atomic charge
  VA   - Mayer's total valence
  BVA  - Mayer's bonded valence
  FA   - Mayer's free valence

  ATOM       NA         ZA         QA         VA         BVA        FA
  0 Li     2.3932     3.0000     0.6068     0.7080     0.7080    -0.0000
  1 Cl    17.6068    17.0000    -0.6068     0.7080     0.7080    -0.0000

  Mayer bond orders larger than 0.1
B(  0-Li,  1-Cl) :   0.7080 

-------
TIMINGS
-------

Total SCF time: 0 days 0 hours 3 min 4 sec 

Total time                  ....     184.507 sec
Sum of individual times     ....     180.831 sec  ( 98.0%)

Fock matrix formation       ....     179.409 sec  ( 97.2%)
  XC integration            ....       9.863 sec  (  5.5% of F)
    Basis function eval.    ....       0.457 sec  (  4.6% of XC)
    Density eval.           ....       0.857 sec  (  8.7% of XC)
    XC-Functional eval.     ....       0.113 sec  (  1.1% of XC)
    XC-Potential eval.      ....       2.577 sec  ( 26.1% of XC)
Diagonalization             ....       0.364 sec  (  0.2%)
Density matrix formation    ....       0.007 sec  (  0.0%)
Population analysis         ....       0.087 sec  (  0.0%)
Initial guess               ....       0.439 sec  (  0.2%)
Orbital Transformation      ....       0.000 sec  (  0.0%)
Orbital Orthonormalization  ....       0.000 sec  (  0.0%)
DIIS solution               ....       0.255 sec  (  0.1%)
Grid generation             ....       0.270 sec  (  0.1%)

-------------------------   --------------------
FINAL SINGLE POINT ENERGY      -467.612402908014
-------------------------   --------------------


                            ***************************************
                            *     ORCA property calculations      *
                            ***************************************

                                    ---------------------
                                    Active property flags
                                    ---------------------
   (+) Dipole Moment


------------------------------------------------------------------------------
                       ORCA ELECTRIC PROPERTIES CALCULATION
------------------------------------------------------------------------------

Dipole Moment Calculation                       ... on
Quadrupole Moment Calculation                   ... off
Polarizability Calculation                      ... off
GBWName                                         ... licl_pbe_-0001_x.gbw
Electron density file                           ... licl_pbe_-0001_x.scfp.tmp
The origin for moment calculation is the CENTER OF MASS  = ( 0.000000,  0.000000  3.193370)

-------------
DIPOLE MOMENT
-------------
                                X             Y             Z
Electronic contribution:     -0.02887      -0.00000      -3.74088
Nuclear contribution   :      0.00000       0.00000       1.04827
                        -----------------------------------------
Total Dipole Moment    :     -0.02887      -0.00000      -2.69260
                        -----------------------------------------
Magnitude (a.u.)       :      2.69276
Magnitude (Debye)      :      6.84445



--------------------
Rotational spectrum 
--------------------
 
Rotational constants in cm-1:     0.000000     0.711250     0.711250 
Rotational constants in MHz :     0.000000 21322.753260 21322.753260 

 Dipole components along the rotational axes: 
x,y,z [a.u.] :    -2.692603    -0.000000    -0.028872 
x,y,z [Debye]:    -6.844053    -0.000000    -0.073387 

 

Timings for individual modules:

Sum of individual times         ...      204.044 sec (=   3.401 min)
GTO integral calculation        ...        9.848 sec (=   0.164 min)   4.8 %
SCF iterations                  ...      194.196 sec (=   3.237 min)  95.2 %
                             ****ORCA TERMINATED NORMALLY****
TOTAL RUN TIME: 0 days 0 hours 3 minutes 33 seconds 251 msec
