
                                 *****************
                                 * O   R   C   A *
                                 *****************

           --- An Ab Initio, DFT and Semiempirical electronic structure package ---

                  #######################################################
                  #                        -***-                        #
                  #          Department of theory and spectroscopy      #
                  #               Directorship: Frank Neese             #
                  #        Max Planck Institute fuer Kohlenforschung    #
                  #                Kaiser Wilhelm Platz 1               #
                  #                 D-45470 Muelheim/Ruhr               #
                  #                      Germany                        #
                  #                                                     #
                  #                  All rights reserved                #
                  #                        -***-                        #
                  #######################################################


                         Program Version 4.1.2  - RELEASE  -


 With contributions from (in alphabetic order):
   Daniel Aravena         : Magnetic Properties
   Michael Atanasov       : Ab Initio Ligand Field Theory
   Alexander A. Auer      : GIAO ZORA
   Ute Becker             : Parallelization
   Giovanni Bistoni       : ED, Open-shell LED
   Martin Brehm           : Molecular dynamics
   Dmytro Bykov           : SCF Hessian
   Vijay G. Chilkuri      : MRCI spin determinant printing
   Dipayan Datta          : RHF DLPNO-CCSD density
   Achintya Kumar Dutta   : EOM-CC, STEOM-CC
   Dmitry Ganyushin       : Spin-Orbit,Spin-Spin,Magnetic field MRCI
   Miquel Garcia          : C-PCM Hessian
   Yang Guo               : DLPNO-NEVPT2, CIM, IAO-localization
   Andreas Hansen         : Spin unrestricted coupled pair/coupled cluster methods
   Benjamin Helmich-Paris : CASSCF linear response (MC-RPA)
   Lee Huntington         : MR-EOM, pCC
   Robert Izsak           : Overlap fitted RIJCOSX, COSX-SCS-MP3, EOM
   Christian Kollmar      : KDIIS, OOCD, Brueckner-CCSD(T), CCSD density
   Simone Kossmann        : Meta GGA functionals, TD-DFT gradient, OOMP2, MP2 Hessian
   Martin Krupicka        : AUTO-CI
   Lucas Lang             : DCDCAS
   Dagmar Lenk            : GEPOL surface, SMD
   Dimitrios Liakos       : Extrapolation schemes; parallel MDCI
   Dimitrios Manganas     : ROCIS; embedding schemes
   Dimitrios Pantazis     : SARC Basis sets
   Taras Petrenko         : DFT Hessian,TD-DFT gradient, ASA, ECA, R-Raman, ABS, FL, XAS/XES, NRVS
   Peter Pinski           : DLPNO-MP2, DLPNO-MP2 Gradient
   Christoph Reimann      : Effective Core Potentials
   Marius Retegan         : Local ZFS, SOC
   Christoph Riplinger    : Optimizer, TS searches, QM/MM, DLPNO-CCSD(T), (RO)-DLPNO pert. Triples
   Tobias Risthaus        : Range-separated hybrids, TD-DFT gradient, RPA, STAB
   Michael Roemelt        : Restricted open shell CIS
   Masaaki Saitow         : Open-shell DLPNO
   Barbara Sandhoefer     : DKH picture change effects
   Avijit Sen             : IP-ROCIS
   Kantharuban Sivalingam : CASSCF convergence, NEVPT2, FIC-MRCI
   Bernardo de Souza      : ESD, SOC TD-DFT
   Georgi Stoychev        : AutoAux, RI-MP2 NMR
   Willem Van den Heuvel  : Paramagnetic NMR
   Boris Wezisla          : Elementary symmetry handling
   Frank Wennmohs         : Technical directorship


 We gratefully acknowledge several colleagues who have allowed us to
 interface, adapt or use parts of their codes:
   Stefan Grimme, W. Hujo, H. Kruse,             : VdW corrections, initial TS optimization,
                  C. Bannwarth                     DFT functionals, gCP, sTDA/sTD-DF
   Ed Valeev                                     : LibInt (2-el integral package), F12 methods
   Garnet Chan, S. Sharma, J. Yang, R. Olivares  : DMRG
   Ulf Ekstrom                                   : XCFun DFT Library
   Mihaly Kallay                                 : mrcc  (arbitrary order and MRCC methods)
   Andreas Klamt, Michael Diedenhofen            : otool_cosmo (COSMO solvation model)
   Jiri Pittner, Ondrej Demel                    : Mk-CCSD
   Frank Weinhold                                : gennbo (NPA and NBO analysis)
   Christopher J. Cramer and Donald G. Truhlar   : smd solvation model
   Lars Goerigk                                  : TD-DFT with DH, B97 family of functionals
   V. Asgeirsson, H. Jonsson                     : NEB implementation
   FAccTs GmbH                                   : IRC, NEB, NEB-TS, Multilevel


 Your calculation uses the libint2 library for the computation of 2-el integrals
 For citations please refer to: http://libint.valeyev.net

 This ORCA versions uses:
   CBLAS   interface :  Fast vector & matrix operations
   LAPACKE interface :  Fast linear algebra routines
   SCALAPACK package :  Parallel linear algebra routines


----- Orbital basis set information -----
Your calculation utilizes the basis: aug-pc-4
   H, C-F              : F. Jensen, J. Chem. Phys. 115, 9113 (2001).
                         F. Jensen, J. Chem. Phys. 116, 7372 (2002).
                         F. Jensen, J. Chem. Phys. 117, 9234 (2002).
   Si-Cl               : F. Jensen, T. Helgaker, J. Chem. Phys. 121, 3463 (2004).
   He-B, Ne-Mg, Al, Ar : F. Jensen, J. Phys. Chem. A 111, 11198 (2007).
   K, Ca, Ga-Kr        : F. Jensen, J. Chem. Phys. 136, 094110 (2012).
   Sc-Zn               : F. Jensen, J. Chem. Phys. 138, 014107 (2013).

================================================================================
                                        WARNINGS
                       Please study these warnings very carefully!
================================================================================


INFO   : the flag for use of LIBINT has been found!

================================================================================
                                       INPUT FILE
================================================================================
NAME = licl_pbe_-0001_z.inp
|  1> !uks pbe nori aug-pc-4 grid5 nofinalgrid verytightscf
|  2> 
|  3> %maxcore 6000
|  4> 
|  5> %pal nprocs 4 end
|  6> 
|  7> %scf
|  8> 	efield 0.0, 0.0, -0.001
|  9> 	maxiter 200
| 10> end
| 11> 
| 12> * xyz 0 1
| 13> Li 0.0000 0.0000 0.0000
| 14> Cl 0.0000 0.0000 2.0207
| 15> *
| 16> 
| 17>                          ****END OF INPUT****
================================================================================

                       ****************************
                       * Single Point Calculation *
                       ****************************

---------------------------------
CARTESIAN COORDINATES (ANGSTROEM)
---------------------------------
  Li     0.000000    0.000000    0.000000
  Cl     0.000000    0.000000    2.020700

----------------------------
CARTESIAN COORDINATES (A.U.)
----------------------------
  NO LB      ZA    FRAG     MASS         X           Y           Z
   0 Li    3.0000    0     6.941    0.000000    0.000000    0.000000
   1 Cl   17.0000    0    35.453    0.000000    0.000000    3.818570

--------------------------------
INTERNAL COORDINATES (ANGSTROEM)
--------------------------------
 Li     0   0   0     0.000000000000     0.00000000     0.00000000
 Cl     1   0   0     2.020700000000     0.00000000     0.00000000

---------------------------
INTERNAL COORDINATES (A.U.)
---------------------------
 Li     0   0   0     0.000000000000     0.00000000     0.00000000
 Cl     1   0   0     3.818569598815     0.00000000     0.00000000

---------------------
BASIS SET INFORMATION
---------------------
There are 2 groups of distinct atoms

 Group   1 Type Li  : 31s9p4d3f2g contracted to 9s5p4d3f2g pattern {12121111111/51111/1111/111/11}
 Group   2 Type Cl  : 44s27p7d4f3g2h contracted to 8s7p7d4f3g2h pattern {15121211111/111111111/1111111/1111/111/11}

Atom   0Li   basis set group =>   1
Atom   1Cl   basis set group =>   2


           ************************************************************
           *        Program running with 4 parallel MPI-processes     *
           *              working on a common directory               *
           ************************************************************
------------------------------------------------------------------------------
                           ORCA GTO INTEGRAL CALCULATION
------------------------------------------------------------------------------

                         BASIS SET STATISTICS AND STARTUP INFO

 # of primitive gaussian shells          ...  136
 # of primitive gaussian functions       ...  354
 # of contracted shells                  ...   54
 # of contracted basis functions         ...  224
 Highest angular momentum                ...    5
 Maximum contraction depth               ...   15
 Integral package used                   ... LIBINT
 Integral threshhold            Thresh   ...  1.000e-12
 Primitive cut-off              TCut     ...  1.000e-14


------------------------------ INTEGRAL EVALUATION ----------------------------


 * One electron integrals 
 Pre-screening matrix                    ... done
 Shell pair data                         ... done (   0.001 sec)


An Electric Field will be added: 0.000e+00 0.000e+00 -1.000e-03 au

  ... done adding electric field perturbation



           ************************************************************
           *        Program running with 4 parallel MPI-processes     *
           *              working on a common directory               *
           ************************************************************
-------------------------------------------------------------------------------
                                 ORCA SCF
-------------------------------------------------------------------------------

------------
SCF SETTINGS
------------
Hamiltonian:
 Density Functional     Method          .... DFT(GTOs)
 Exchange Functional    Exchange        .... PBE
   PBE kappa parameter   XKappa         ....  0.804000
   PBE mue parameter    XMuePBE         ....  0.219520
 Correlation Functional Correlation     .... PBE
   PBE beta parameter  CBetaPBE         ....  0.066725
 LDA part of GGA corr.  LDAOpt          .... PW91-LDA
 Gradients option       PostSCFGGA      .... off
   Density functional embedding theory  .... OFF
   NL short-range parameter             ....  6.400000


General Settings:
 Integral files         IntName         .... licl_pbe_-0001_z
 Hartree-Fock type      HFTyp           .... UHF
 Total Charge           Charge          ....    0
 Multiplicity           Mult            ....    1
 Number of Electrons    NEL             ....   20
 Basis Dimension        Dim             ....  224
 Nuclear Repulsion      ENuc            ....     13.3557864222 Eh

Convergence Acceleration:
 DIIS                   CNVDIIS         .... on
   Start iteration      DIISMaxIt       ....    12
   Startup error        DIISStart       ....  0.200000
   # of expansion vecs  DIISMaxEq       ....     5
   Bias factor          DIISBfac        ....   1.050
   Max. coefficient     DIISMaxC        ....  10.000
 Newton-Raphson         CNVNR           .... off
 SOSCF                  CNVSOSCF        .... off
 Level Shifting         CNVShift        .... on
   Level shift para.    LevelShift      ....    0.2500
   Turn off err/grad.   ShiftErr        ....    0.0010
 Zerner damping         CNVZerner       .... off
 Static damping         CNVDamp         .... on
   Fraction old density DampFac         ....    0.7000
   Max. Damping (<1)    DampMax         ....    0.9800
   Min. Damping (>=0)   DampMin         ....    0.0000
   Turn off err/grad.   DampErr         ....    0.1000
 Fernandez-Rico         CNVRico         .... off

SCF Procedure:
 Maximum # iterations   MaxIter         ....   200
 SCF integral mode      SCFMode         .... Direct
   Integral package                     .... LIBINT
 Reset frequency        DirectResetFreq ....    20
 Integral Threshold     Thresh          ....  1.000e-12 Eh
 Primitive CutOff       TCut            ....  1.000e-14 Eh

Convergence Tolerance:
 Convergence Check Mode ConvCheckMode   .... Total+1el-Energy
 Convergence forced     ConvForced      .... 0
 Energy Change          TolE            ....  1.000e-09 Eh
 1-El. energy change                    ....  1.000e-06 Eh
 DIIS Error             TolErr          ....  1.000e-08


Diagonalization of the overlap matrix:
Smallest eigenvalue                        ... 1.441e-05
Time for diagonalization                   ...    0.008 sec
Threshold for overlap eigenvalues          ... 1.000e-08
Number of eigenvalues below threshold      ... 0
Time for construction of square roots      ...    0.013 sec
Total time needed                          ...    0.021 sec

-------------------
DFT GRID GENERATION
-------------------

General Integration Accuracy     IntAcc      ...  5.010
Radial Grid Type                 RadialGrid  ... Gauss-Chebyshev
Angular Grid (max. acc.)         AngularGrid ... Lebedev-434
Angular grid pruning method      GridPruning ... 3 (G Style)
Weight generation scheme         WeightScheme... Becke
Basis function cutoff            BFCut       ...    1.0000e-12
Integration weight cutoff        WCut        ...    1.0000e-14
Grids for H and He will be reduced by one unit

# of grid points (after initial pruning)     ...  22246 (   0.0 sec)
# of grid points (after weights+screening)   ...  22158 (   0.0 sec)
nearest neighbour list constructed           ...    0.0 sec
Grid point re-assignment to atoms done       ...    0.0 sec
Grid point division into batches done        ...    0.2 sec
Reduced shell lists constructed in    0.2 sec

Total number of grid points                  ...    22158
Total number of batches                      ...      347
Average number of points per batch           ...       63
Average number of grid points per atom       ...    11079
Average number of shells per batch           ...    31.51 (58.35%)
Average number of basis functions per batch  ...   126.83 (56.62%)
Average number of large shells per batch     ...    26.61 (84.46%)
Average number of large basis fcns per batch ...   106.27 (83.79%)
Maximum spatial batch extension              ...  32.58, 32.58, 30.97 au
Average spatial batch extension              ...   2.49,  2.44,  2.06 au

Time for grid setup =    0.258 sec

------------------------------
INITIAL GUESS: MODEL POTENTIAL
------------------------------
Loading Hartree-Fock densities                     ... done
Calculating cut-offs                               ... done
Setting up the integral package                    ... done
Initializing the effective Hamiltonian             ... done
Starting the Coulomb interaction                   ... done (   0.0 sec)
Reading the grid                                   ... done
Mapping shells                                     ... done
Starting the XC term evaluation                    ... done (   0.1 sec)
  promolecular density results
     # of electrons  =     20.000032600
     EX              =    -29.120365965
     EC              =     -0.714535439
     EX+EC           =    -29.834901404
Transforming the Hamiltonian                       ... done (   0.0 sec)
Diagonalizing the Hamiltonian                      ... done (   0.0 sec)
Back transforming the eigenvectors                 ... done (   0.0 sec)
Now organizing SCF variables                       ... done
                      ------------------
                      INITIAL GUESS DONE (   0.5 sec)
                      ------------------
--------------
SCF ITERATIONS
--------------
ITER       Energy         Delta-E        Max-DP      RMS-DP      [F,P]     Damp
               ***  Starting incremental Fock matrix formation  ***
  0   -467.5684602168   0.000000000000 0.03920856  0.00035972  0.1358567 0.7000
  1   -467.5907951487  -0.022334931868 0.01980730  0.00023152  0.0694068 0.7000
                               ***Turning on DIIS***
  2   -467.5998487996  -0.009053650936 0.02209081  0.00034954  0.0242581 0.0000
  3   -467.6091205548  -0.009271755155 0.02183016  0.00018684  0.0514916 0.0000
  4   -467.6145516686  -0.005431113865 0.00350616  0.00005567  0.0144348 0.0000
  5   -467.6150057979  -0.000454129244 0.00086836  0.00001616  0.0054221 0.0000
  6   -467.6150805844  -0.000074786543 0.00031083  0.00000687  0.0020049 0.0000
  7   -467.6150926485  -0.000012064084 0.00035801  0.00000620  0.0009441 0.0000
  8   -467.6150965421  -0.000003893607 0.00004196  0.00000082  0.0002151 0.0000
  9   -467.6150965910  -0.000000048910 0.00001657  0.00000028  0.0001166 0.0000
 10   -467.6150966081  -0.000000017084 0.00000307  0.00000004  0.0000044 0.0000
 11   -467.6150966081  -0.000000000023 0.00000144  0.00000001  0.0000005 0.0000
 12   -467.6150966081   0.000000000001 0.00000048  0.00000001  0.0000002 0.0000
                 **** Energy Check signals convergence ****

               *****************************************************
               *                     SUCCESS                       *
               *           SCF CONVERGED AFTER  13 CYCLES          *
               *****************************************************


----------------
TOTAL SCF ENERGY
----------------

Total Energy       :         -467.61509661 Eh          -12724.45368 eV

Components:
Nuclear Repulsion  :           13.35578642 Eh             363.42942 eV
Electronic Energy  :         -480.97088303 Eh          -13087.88310 eV
One Electron Energy:         -673.68203009 Eh          -18331.82001 eV
Two Electron Energy:          192.71114706 Eh            5243.93691 eV

Virial components:
Potential Energy   :         -934.79542242 Eh          -25437.07664 eV
Kinetic Energy     :          467.18032581 Eh           12712.62296 eV
Virial Ratio       :            2.00093063


DFT components:
N(Alpha)           :       10.000012503269 electrons
N(Beta)            :       10.000012503269 electrons
N(Total)           :       20.000025006538 electrons
E(X)               :      -29.241469755798 Eh       
E(C)               :       -0.728759938418 Eh       
E(XC)              :      -29.970229694216 Eh       
DFET-embed. en.    :        0.000000000000 Eh       

---------------
SCF CONVERGENCE
---------------

  Last Energy change         ...    2.8422e-13  Tolerance :   1.0000e-09
  Last MAX-Density change    ...    5.0413e-07  Tolerance :   1.0000e-08
  Last RMS-Density change    ...    6.5448e-09  Tolerance :   1.0000e-09
  Last DIIS Error            ...    6.6103e-09  Tolerance :   1.0000e-08

             **** THE GBW FILE WAS UPDATED (licl_pbe_-0001_z.gbw) ****
             **** DENSITY FILE WAS UPDATED (licl_pbe_-0001_z.scfp.tmp) ****
             **** ENERGY FILE WAS UPDATED (licl_pbe_-0001_z.en.tmp) ****
----------------------
UHF SPIN CONTAMINATION
----------------------

Warning: in a DFT calculation there is little theoretical justification to 
         calculate <S**2> as in Hartree-Fock theory. We will do it anyways
         but you should keep in mind that the values have only limited relevance

Expectation value of <S**2>     :     0.000000
Ideal value S*(S+1) for S=0.0   :     0.000000
Deviation                       :     0.000000

----------------
ORBITAL ENERGIES
----------------
                 SPIN UP ORBITALS
  NO   OCC          E(Eh)            E(eV) 
   0   1.0000    -100.553140     -2736.1900 
   1   1.0000      -9.078468      -247.0377 
   2   1.0000      -6.894661      -187.6133 
   3   1.0000      -6.894066      -187.5971 
   4   1.0000      -6.894066      -187.5971 
   5   1.0000      -1.895382       -51.5760 
   6   1.0000      -0.643491       -17.5103 
   7   1.0000      -0.237477        -6.4621 
   8   1.0000      -0.216010        -5.8779 
   9   1.0000      -0.216010        -5.8779 
  10   0.0000      -0.061464        -1.6725 
  11   0.0000      -0.003455        -0.0940 
  12   0.0000      -0.003455        -0.0940 
  13   0.0000       0.006427         0.1749 
  14   0.0000       0.015072         0.4101 
  15   0.0000       0.024563         0.6684 
  16   0.0000       0.024563         0.6684 
  17   0.0000       0.032598         0.8870 
  18   0.0000       0.049226         1.3395 
  19   0.0000       0.051582         1.4036 
  20   0.0000       0.051582         1.4036 
  21   0.0000       0.051617         1.4046 
  22   0.0000       0.051617         1.4046 
  23   0.0000       0.051905         1.4124 
  24   0.0000       0.073437         1.9983 
  25   0.0000       0.073437         1.9983 
  26   0.0000       0.080117         2.1801 
  27   0.0000       0.101811         2.7704 
  28   0.0000       0.101811         2.7704 
  29   0.0000       0.104255         2.8369 
  30   0.0000       0.104255         2.8369 
  31   0.0000       0.108038         2.9399 
  32   0.0000       0.108038         2.9399 
  33   0.0000       0.110321         3.0020 
  34   0.0000       0.130274         3.5449 
  35   0.0000       0.138762         3.7759 
  36   0.0000       0.138762         3.7759 
  37   0.0000       0.158892         4.3237 
  38   0.0000       0.163388         4.4460 
  39   0.0000       0.165591         4.5060 
  40   0.0000       0.165591         4.5060 
  41   0.0000       0.169454         4.6111 
  42   0.0000       0.169454         4.6111 
  43   0.0000       0.169987         4.6256 
  44   0.0000       0.169987         4.6256 
  45   0.0000       0.173012         4.7079 
  46   0.0000       0.173012         4.7079 
  47   0.0000       0.182011         4.9528 
  48   0.0000       0.182011         4.9528 
  49   0.0000       0.188126         5.1192 
  50   0.0000       0.191686         5.2161 
  51   0.0000       0.191686         5.2161 
  52   0.0000       0.222294         6.0489 
  53   0.0000       0.258535         7.0351 
  54   0.0000       0.258535         7.0351 
  55   0.0000       0.280931         7.6445 
  56   0.0000       0.309628         8.4254 
  57   0.0000       0.309628         8.4254 
  58   0.0000       0.317058         8.6276 
  59   0.0000       0.317058         8.6276 
  60   0.0000       0.333966         9.0877 
  61   0.0000       0.338512         9.2114 
  62   0.0000       0.386773        10.5246 
  63   0.0000       0.386773        10.5246 
  64   0.0000       0.397597        10.8192 
  65   0.0000       0.397597        10.8192 
  66   0.0000       0.402377        10.9492 
  67   0.0000       0.402377        10.9492 
  68   0.0000       0.420426        11.4404 
  69   0.0000       0.420427        11.4404 
  70   0.0000       0.422731        11.5031 
  71   0.0000       0.429073        11.6757 
  72   0.0000       0.429073        11.6757 
  73   0.0000       0.468234        12.7413 
  74   0.0000       0.527049        14.3417 
  75   0.0000       0.527049        14.3417 
  76   0.0000       0.540303        14.7024 
  77   0.0000       0.540303        14.7024 
  78   0.0000       0.569285        15.4910 
  79   0.0000       0.572971        15.5913 
  80   0.0000       0.572971        15.5913 
  81   0.0000       0.620040        16.8721 
  82   0.0000       0.620040        16.8721 
  83   0.0000       0.625892        17.0314 
  84   0.0000       0.629052        17.1174 
  85   0.0000       0.629052        17.1174 
  86   0.0000       0.681849        18.5540 
  87   0.0000       0.748857        20.3774 
  88   0.0000       0.748857        20.3774 
  89   0.0000       0.766699        20.8629 
  90   0.0000       0.768588        20.9143 
  91   0.0000       0.768588        20.9143 
  92   0.0000       0.808076        21.9889 
  93   0.0000       0.808076        21.9889 
  94   0.0000       0.813110        22.1259 
  95   0.0000       0.813110        22.1259 
  96   0.0000       0.841651        22.9025 
  97   0.0000       0.841651        22.9025 
  98   0.0000       0.843200        22.9446 
  99   0.0000       0.851435        23.1687 
 100   0.0000       0.851435        23.1687 
 101   0.0000       0.907387        24.6913 
 102   0.0000       0.907387        24.6913 
 103   0.0000       0.911931        24.8149 
 104   0.0000       0.945002        25.7148 
 105   0.0000       0.945002        25.7148 
 106   0.0000       0.971542        26.4370 
 107   0.0000       0.971542        26.4370 
 108   0.0000       0.990033        26.9402 
 109   0.0000       0.990033        26.9402 
 110   0.0000       1.018518        27.7153 
 111   0.0000       1.070666        29.1343 
 112   0.0000       1.070666        29.1343 
 113   0.0000       1.110155        30.2089 
 114   0.0000       1.110156        30.2089 
 115   0.0000       1.134878        30.8816 
 116   0.0000       1.134878        30.8816 
 117   0.0000       1.151311        31.3288 
 118   0.0000       1.283535        34.9268 
 119   0.0000       1.349093        36.7107 
 120   0.0000       1.349093        36.7107 
 121   0.0000       1.456074        39.6218 
 122   0.0000       1.456074        39.6218 
 123   0.0000       1.516929        41.2777 
 124   0.0000       1.530022        41.6340 
 125   0.0000       1.530022        41.6340 
 126   0.0000       1.761651        47.9370 
 127   0.0000       1.761651        47.9370 
 128   0.0000       1.836975        49.9866 
 129   0.0000       1.876560        51.0638 
 130   0.0000       1.876560        51.0638 
 131   0.0000       1.883731        51.2589 
 132   0.0000       1.972921        53.6859 
 133   0.0000       2.017388        54.8959 
 134   0.0000       2.209823        60.1323 
 135   0.0000       2.209824        60.1324 
 136   0.0000       2.297432        62.5163 
 137   0.0000       2.297432        62.5163 
 138   0.0000       2.335001        63.5386 
 139   0.0000       2.335001        63.5386 
 140   0.0000       2.404057        65.4177 
 141   0.0000       2.404058        65.4177 
 142   0.0000       2.501660        68.0736 
 143   0.0000       2.508011        68.2464 
 144   0.0000       2.508011        68.2464 
 145   0.0000       2.682364        72.9908 
 146   0.0000       2.682364        72.9908 
 147   0.0000       2.698123        73.4197 
 148   0.0000       2.698125        73.4197 
 149   0.0000       2.720175        74.0197 
 150   0.0000       2.720175        74.0197 
 151   0.0000       2.799025        76.1653 
 152   0.0000       2.921998        79.5116 
 153   0.0000       2.922005        79.5118 
 154   0.0000       2.992115        81.4196 
 155   0.0000       2.992115        81.4196 
 156   0.0000       3.027351        82.3784 
 157   0.0000       3.027351        82.3784 
 158   0.0000       3.148752        85.6819 
 159   0.0000       3.346972        91.0757 
 160   0.0000       3.346973        91.0758 
 161   0.0000       3.580709        97.4360 
 162   0.0000       3.580709        97.4360 
 163   0.0000       3.592535        97.7579 
 164   0.0000       3.746988       101.9607 
 165   0.0000       3.746989       101.9608 
 166   0.0000       3.765721       102.4705 
 167   0.0000       3.765721       102.4705 
 168   0.0000       4.066041       110.6426 
 169   0.0000       4.066041       110.6426 
 170   0.0000       4.089346       111.2768 
 171   0.0000       4.214505       114.6825 
 172   0.0000       4.838935       131.6741 
 173   0.0000       4.838935       131.6741 
 174   0.0000       5.006856       136.2435 
 175   0.0000       5.237686       142.5247 
 176   0.0000       5.237687       142.5247 
 177   0.0000       5.439195       148.0080 
 178   0.0000       5.439195       148.0080 
 179   0.0000       5.756167       156.6333 
 180   0.0000       5.756182       156.6337 
 181   0.0000       5.760926       156.7628 
 182   0.0000       5.760926       156.7628 
 183   0.0000       5.773116       157.0945 
 184   0.0000       5.773116       157.0945 
 185   0.0000       5.827333       158.5698 
 186   0.0000       5.827347       158.5702 
 187   0.0000       5.872903       159.8098 
 188   0.0000       5.872903       159.8098 
 189   0.0000       5.913418       160.9123 
 190   0.0000       5.917768       161.0306 
 191   0.0000       5.917776       161.0309 
 192   0.0000       6.055715       164.7844 
 193   0.0000       6.303286       171.5211 
 194   0.0000       6.303286       171.5211 
 195   0.0000       6.342965       172.6008 
 196   0.0000       9.184483       249.9225 
 197   0.0000       9.184740       249.9295 
 198   0.0000       9.190442       250.0846 
 199   0.0000       9.190442       250.0846 
 200   0.0000       9.289564       252.7819 
 201   0.0000       9.289569       252.7820 
 202   0.0000       9.325824       253.7686 
 203   0.0000       9.558534       260.1009 
 204   0.0000       9.558534       260.1009 
 205   0.0000      10.669372       290.3284 
 206   0.0000      12.927635       351.7788 
 207   0.0000      12.927635       351.7788 
 208   0.0000      12.974540       353.0552 
 209   0.0000      12.974630       353.0576 
 210   0.0000      13.084257       356.0407 
 211   0.0000      13.084257       356.0407 
 212   0.0000      13.168311       358.3279 
 213   0.0000      17.686356       481.2702 
 214   0.0000      17.686437       481.2724 
 215   0.0000      17.782094       483.8754 
 216   0.0000      17.782094       483.8754 
 217   0.0000      17.991961       489.5862 
 218   0.0000      38.586913      1050.0033 
 219   0.0000      65.884994      1792.8218 
 220   0.0000      65.885033      1792.8229 
 221   0.0000      65.943450      1794.4125 
 222   0.0000      65.943450      1794.4125 
 223   0.0000      66.075990      1798.0191 

                 SPIN DOWN ORBITALS
  NO   OCC          E(Eh)            E(eV) 
   0   1.0000    -100.553140     -2736.1900 
   1   1.0000      -9.078468      -247.0377 
   2   1.0000      -6.894661      -187.6133 
   3   1.0000      -6.894066      -187.5971 
   4   1.0000      -6.894066      -187.5971 
   5   1.0000      -1.895382       -51.5760 
   6   1.0000      -0.643491       -17.5103 
   7   1.0000      -0.237477        -6.4621 
   8   1.0000      -0.216010        -5.8779 
   9   1.0000      -0.216010        -5.8779 
  10   0.0000      -0.061464        -1.6725 
  11   0.0000      -0.003455        -0.0940 
  12   0.0000      -0.003455        -0.0940 
  13   0.0000       0.006427         0.1749 
  14   0.0000       0.015072         0.4101 
  15   0.0000       0.024563         0.6684 
  16   0.0000       0.024563         0.6684 
  17   0.0000       0.032598         0.8870 
  18   0.0000       0.049226         1.3395 
  19   0.0000       0.051582         1.4036 
  20   0.0000       0.051582         1.4036 
  21   0.0000       0.051617         1.4046 
  22   0.0000       0.051617         1.4046 
  23   0.0000       0.051905         1.4124 
  24   0.0000       0.073437         1.9983 
  25   0.0000       0.073437         1.9983 
  26   0.0000       0.080117         2.1801 
  27   0.0000       0.101811         2.7704 
  28   0.0000       0.101811         2.7704 
  29   0.0000       0.104255         2.8369 
  30   0.0000       0.104255         2.8369 
  31   0.0000       0.108038         2.9399 
  32   0.0000       0.108038         2.9399 
  33   0.0000       0.110321         3.0020 
  34   0.0000       0.130274         3.5449 
  35   0.0000       0.138762         3.7759 
  36   0.0000       0.138762         3.7759 
  37   0.0000       0.158892         4.3237 
  38   0.0000       0.163388         4.4460 
  39   0.0000       0.165591         4.5060 
  40   0.0000       0.165591         4.5060 
  41   0.0000       0.169454         4.6111 
  42   0.0000       0.169454         4.6111 
  43   0.0000       0.169987         4.6256 
  44   0.0000       0.169987         4.6256 
  45   0.0000       0.173012         4.7079 
  46   0.0000       0.173012         4.7079 
  47   0.0000       0.182011         4.9528 
  48   0.0000       0.182011         4.9528 
  49   0.0000       0.188126         5.1192 
  50   0.0000       0.191686         5.2161 
  51   0.0000       0.191686         5.2161 
  52   0.0000       0.222294         6.0489 
  53   0.0000       0.258535         7.0351 
  54   0.0000       0.258535         7.0351 
  55   0.0000       0.280931         7.6445 
  56   0.0000       0.309628         8.4254 
  57   0.0000       0.309628         8.4254 
  58   0.0000       0.317058         8.6276 
  59   0.0000       0.317058         8.6276 
  60   0.0000       0.333966         9.0877 
  61   0.0000       0.338512         9.2114 
  62   0.0000       0.386773        10.5246 
  63   0.0000       0.386773        10.5246 
  64   0.0000       0.397597        10.8192 
  65   0.0000       0.397597        10.8192 
  66   0.0000       0.402377        10.9492 
  67   0.0000       0.402377        10.9492 
  68   0.0000       0.420426        11.4404 
  69   0.0000       0.420427        11.4404 
  70   0.0000       0.422731        11.5031 
  71   0.0000       0.429073        11.6757 
  72   0.0000       0.429073        11.6757 
  73   0.0000       0.468234        12.7413 
  74   0.0000       0.527049        14.3417 
  75   0.0000       0.527049        14.3417 
  76   0.0000       0.540303        14.7024 
  77   0.0000       0.540303        14.7024 
  78   0.0000       0.569285        15.4910 
  79   0.0000       0.572971        15.5913 
  80   0.0000       0.572971        15.5913 
  81   0.0000       0.620040        16.8721 
  82   0.0000       0.620040        16.8721 
  83   0.0000       0.625892        17.0314 
  84   0.0000       0.629052        17.1174 
  85   0.0000       0.629052        17.1174 
  86   0.0000       0.681849        18.5540 
  87   0.0000       0.748857        20.3774 
  88   0.0000       0.748857        20.3774 
  89   0.0000       0.766699        20.8629 
  90   0.0000       0.768588        20.9143 
  91   0.0000       0.768588        20.9143 
  92   0.0000       0.808076        21.9889 
  93   0.0000       0.808076        21.9889 
  94   0.0000       0.813110        22.1259 
  95   0.0000       0.813110        22.1259 
  96   0.0000       0.841651        22.9025 
  97   0.0000       0.841651        22.9025 
  98   0.0000       0.843200        22.9446 
  99   0.0000       0.851435        23.1687 
 100   0.0000       0.851435        23.1687 
 101   0.0000       0.907387        24.6913 
 102   0.0000       0.907387        24.6913 
 103   0.0000       0.911931        24.8149 
 104   0.0000       0.945002        25.7148 
 105   0.0000       0.945002        25.7148 
 106   0.0000       0.971542        26.4370 
 107   0.0000       0.971542        26.4370 
 108   0.0000       0.990033        26.9402 
 109   0.0000       0.990033        26.9402 
 110   0.0000       1.018518        27.7153 
 111   0.0000       1.070666        29.1343 
 112   0.0000       1.070666        29.1343 
 113   0.0000       1.110155        30.2089 
 114   0.0000       1.110156        30.2089 
 115   0.0000       1.134878        30.8816 
 116   0.0000       1.134878        30.8816 
 117   0.0000       1.151311        31.3288 
 118   0.0000       1.283535        34.9268 
 119   0.0000       1.349093        36.7107 
 120   0.0000       1.349093        36.7107 
 121   0.0000       1.456074        39.6218 
 122   0.0000       1.456074        39.6218 
 123   0.0000       1.516929        41.2777 
 124   0.0000       1.530022        41.6340 
 125   0.0000       1.530022        41.6340 
 126   0.0000       1.761651        47.9370 
 127   0.0000       1.761651        47.9370 
 128   0.0000       1.836975        49.9866 
 129   0.0000       1.876560        51.0638 
 130   0.0000       1.876560        51.0638 
 131   0.0000       1.883731        51.2589 
 132   0.0000       1.972921        53.6859 
 133   0.0000       2.017388        54.8959 
 134   0.0000       2.209823        60.1323 
 135   0.0000       2.209824        60.1324 
 136   0.0000       2.297432        62.5163 
 137   0.0000       2.297432        62.5163 
 138   0.0000       2.335001        63.5386 
 139   0.0000       2.335001        63.5386 
 140   0.0000       2.404057        65.4177 
 141   0.0000       2.404058        65.4177 
 142   0.0000       2.501660        68.0736 
 143   0.0000       2.508011        68.2464 
 144   0.0000       2.508011        68.2464 
 145   0.0000       2.682364        72.9908 
 146   0.0000       2.682364        72.9908 
 147   0.0000       2.698123        73.4197 
 148   0.0000       2.698125        73.4197 
 149   0.0000       2.720175        74.0197 
 150   0.0000       2.720175        74.0197 
 151   0.0000       2.799025        76.1653 
 152   0.0000       2.921998        79.5116 
 153   0.0000       2.922005        79.5118 
 154   0.0000       2.992115        81.4196 
 155   0.0000       2.992115        81.4196 
 156   0.0000       3.027351        82.3784 
 157   0.0000       3.027351        82.3784 
 158   0.0000       3.148752        85.6819 
 159   0.0000       3.346972        91.0757 
 160   0.0000       3.346973        91.0758 
 161   0.0000       3.580709        97.4360 
 162   0.0000       3.580709        97.4360 
 163   0.0000       3.592535        97.7579 
 164   0.0000       3.746988       101.9607 
 165   0.0000       3.746989       101.9608 
 166   0.0000       3.765721       102.4705 
 167   0.0000       3.765721       102.4705 
 168   0.0000       4.066041       110.6426 
 169   0.0000       4.066041       110.6426 
 170   0.0000       4.089346       111.2768 
 171   0.0000       4.214505       114.6825 
 172   0.0000       4.838935       131.6741 
 173   0.0000       4.838935       131.6741 
 174   0.0000       5.006856       136.2435 
 175   0.0000       5.237686       142.5247 
 176   0.0000       5.237687       142.5247 
 177   0.0000       5.439195       148.0080 
 178   0.0000       5.439195       148.0080 
 179   0.0000       5.756167       156.6333 
 180   0.0000       5.756182       156.6337 
 181   0.0000       5.760926       156.7628 
 182   0.0000       5.760926       156.7628 
 183   0.0000       5.773116       157.0945 
 184   0.0000       5.773116       157.0945 
 185   0.0000       5.827333       158.5698 
 186   0.0000       5.827347       158.5702 
 187   0.0000       5.872903       159.8098 
 188   0.0000       5.872903       159.8098 
 189   0.0000       5.913418       160.9123 
 190   0.0000       5.917768       161.0306 
 191   0.0000       5.917776       161.0309 
 192   0.0000       6.055715       164.7844 
 193   0.0000       6.303286       171.5211 
 194   0.0000       6.303286       171.5211 
 195   0.0000       6.342965       172.6008 
 196   0.0000       9.184483       249.9225 
 197   0.0000       9.184740       249.9295 
 198   0.0000       9.190442       250.0846 
 199   0.0000       9.190442       250.0846 
 200   0.0000       9.289564       252.7819 
 201   0.0000       9.289569       252.7820 
 202   0.0000       9.325824       253.7686 
 203   0.0000       9.558534       260.1009 
 204   0.0000       9.558534       260.1009 
 205   0.0000      10.669372       290.3284 
 206   0.0000      12.927635       351.7788 
 207   0.0000      12.927635       351.7788 
 208   0.0000      12.974540       353.0552 
 209   0.0000      12.974630       353.0576 
 210   0.0000      13.084257       356.0407 
 211   0.0000      13.084257       356.0407 
 212   0.0000      13.168311       358.3279 
 213   0.0000      17.686356       481.2702 
 214   0.0000      17.686437       481.2724 
 215   0.0000      17.782094       483.8754 
 216   0.0000      17.782094       483.8754 
 217   0.0000      17.991961       489.5862 
 218   0.0000      38.586913      1050.0033 
 219   0.0000      65.884994      1792.8218 
 220   0.0000      65.885033      1792.8229 
 221   0.0000      65.943450      1794.4125 
 222   0.0000      65.943450      1794.4125 
 223   0.0000      66.075990      1798.0191 

                    ********************************
                    * MULLIKEN POPULATION ANALYSIS *
                    ********************************

--------------------------------------------
MULLIKEN ATOMIC CHARGES AND SPIN POPULATIONS
--------------------------------------------
   0 Li:    0.612084   -0.000000
   1 Cl:   -0.612084    0.000000
Sum of atomic charges         :   -0.0000000
Sum of atomic spin populations:    0.0000000

-----------------------------------------------------
MULLIKEN REDUCED ORBITAL CHARGES AND SPIN POPULATIONS
-----------------------------------------------------
CHARGE
  0 Lis       :     2.086076  s :     2.086076
      pz      :     0.118764  p :     0.243261
      px      :     0.062248
      py      :     0.062248
      dz2     :     0.011681  d :     0.050099
      dxz     :     0.019209
      dyz     :     0.019209
      dx2y2   :     0.000000
      dxy     :     0.000000
      f0      :     0.001443  f :     0.008563
      f+1     :     0.003560
      f-1     :     0.003560
      f+2     :    -0.000000
      f-2     :    -0.000000
      f+3     :     0.000000
      f-3     :     0.000000
      g0      :     0.000054  g :    -0.000083
      g+1     :    -0.000069
      g-1     :    -0.000069
      g+2     :     0.000000
      g-2     :     0.000000
      g+3     :     0.000000
      g-3     :     0.000000
      g+4     :     0.000000
      g-4     :     0.000000
  1 Cls       :     5.962837  s :     5.962837
      pz      :     3.811077  p :    11.635674
      px      :     3.912298
      py      :     3.912298
      dz2     :     0.003978  d :     0.009183
      dxz     :     0.002602
      dyz     :     0.002602
      dx2y2   :     0.000000
      dxy     :     0.000000
      f0      :     0.002421  f :     0.002752
      f+1     :     0.000165
      f-1     :     0.000165
      f+2     :     0.000000
      f-2     :     0.000000
      f+3     :     0.000000
      f-3     :     0.000000
      g0      :     0.001256  g :     0.001235
      g+1     :    -0.000011
      g-1     :    -0.000011
      g+2     :    -0.000000
      g-2     :    -0.000000
      g+3     :     0.000000
      g-3     :     0.000000
      g+4     :     0.000000
      g-4     :     0.000000
      h0      :     0.000412  h :     0.000403
      h+1     :    -0.000004
      h-1     :    -0.000004
      h+2     :    -0.000000
      h-2     :    -0.000000
      h+3     :     0.000000
      h-3     :     0.000000
      h+4     :     0.000000
      h-4     :     0.000000
      h+5     :     0.000000
      h-5     :     0.000000

SPIN
  0 Lis       :    -0.000000  s :    -0.000000
      pz      :    -0.000000  p :    -0.000000
      px      :     0.000000
      py      :     0.000000
      dz2     :    -0.000000  d :    -0.000000
      dxz     :     0.000000
      dyz     :     0.000000
      dx2y2   :    -0.000000
      dxy     :     0.000000
      f0      :    -0.000000  f :     0.000000
      f+1     :     0.000000
      f-1     :     0.000000
      f+2     :     0.000000
      f-2     :     0.000000
      f+3     :    -0.000000
      f-3     :     0.000000
      g0      :     0.000000  g :     0.000000
      g+1     :     0.000000
      g-1     :     0.000000
      g+2     :    -0.000000
      g-2     :    -0.000000
      g+3     :    -0.000000
      g-3     :     0.000000
      g+4     :     0.000000
      g-4     :     0.000000
  1 Cls       :     0.000000  s :     0.000000
      pz      :    -0.000000  p :    -0.000000
      px      :    -0.000000
      py      :    -0.000000
      dz2     :    -0.000000  d :    -0.000000
      dxz     :    -0.000000
      dyz     :     0.000000
      dx2y2   :    -0.000000
      dxy     :    -0.000000
      f0      :    -0.000000  f :    -0.000000
      f+1     :    -0.000000
      f-1     :     0.000000
      f+2     :    -0.000000
      f-2     :     0.000000
      f+3     :    -0.000000
      f-3     :    -0.000000
      g0      :    -0.000000  g :    -0.000000
      g+1     :    -0.000000
      g-1     :     0.000000
      g+2     :     0.000000
      g-2     :    -0.000000
      g+3     :    -0.000000
      g-3     :     0.000000
      g+4     :     0.000000
      g-4     :    -0.000000
      h0      :    -0.000000  h :    -0.000000
      h+1     :    -0.000000
      h-1     :     0.000000
      h+2     :    -0.000000
      h-2     :    -0.000000
      h+3     :    -0.000000
      h-3     :    -0.000000
      h+4     :     0.000000
      h-4     :     0.000000
      h+5     :     0.000000
      h-5     :     0.000000


                     *******************************
                     * LOEWDIN POPULATION ANALYSIS *
                     *******************************

-------------------------------------------
LOEWDIN ATOMIC CHARGES AND SPIN POPULATIONS
-------------------------------------------
   0 Li:   -0.239018    0.000000
   1 Cl:    0.239018    0.000000

----------------------------------------------------
LOEWDIN REDUCED ORBITAL CHARGES AND SPIN POPULATIONS
----------------------------------------------------
CHARGE
  0 Lis       :     2.090455  s :     2.090455
      pz      :     0.306511  p :     0.512578
      px      :     0.103033
      py      :     0.103033
      dz2     :     0.180466  d :     0.386114
      dxz     :     0.102824
      dyz     :     0.102824
      dx2y2   :     0.000000
      dxy     :     0.000000
      f0      :     0.082217  f :     0.216951
      f+1     :     0.067367
      f-1     :     0.067367
      f+2     :     0.000000
      f-2     :     0.000000
      f+3     :     0.000000
      f-3     :     0.000000
      g0      :     0.013874  g :     0.032921
      g+1     :     0.009524
      g-1     :     0.009524
      g+2     :     0.000000
      g-2     :     0.000000
      g+3     :     0.000000
      g-3     :     0.000000
      g+4     :     0.000000
      g-4     :     0.000000
  1 Cls       :     5.538435  s :     5.538435
      pz      :     3.708004  p :    11.135252
      px      :     3.713624
      py      :     3.713624
      dz2     :     0.021085  d :     0.024255
      dxz     :     0.001585
      dyz     :     0.001585
      dx2y2   :     0.000000
      dxy     :     0.000000
      f0      :     0.018122  f :     0.019992
      f+1     :     0.000935
      f-1     :     0.000935
      f+2     :     0.000000
      f-2     :     0.000000
      f+3     :     0.000000
      f-3     :     0.000000
      g0      :     0.020732  g :     0.022390
      g+1     :     0.000829
      g-1     :     0.000829
      g+2     :     0.000000
      g-2     :     0.000000
      g+3     :     0.000000
      g-3     :     0.000000
      g+4     :     0.000000
      g-4     :     0.000000
      h0      :     0.020100  h :     0.020658
      h+1     :     0.000279
      h-1     :     0.000279
      h+2     :     0.000000
      h-2     :     0.000000
      h+3     :     0.000000
      h-3     :     0.000000
      h+4     :     0.000000
      h-4     :     0.000000
      h+5     :     0.000000
      h-5     :     0.000000

SPIN
  0 Lis       :     0.000000  s :     0.000000
      pz      :    -0.000000  p :     0.000000
      px      :     0.000000
      py      :     0.000000
      dz2     :     0.000000  d :     0.000000
      dxz     :    -0.000000
      dyz     :     0.000000
      dx2y2   :    -0.000000
      dxy     :    -0.000000
      f0      :     0.000000  f :     0.000000
      f+1     :     0.000000
      f-1     :     0.000000
      f+2     :    -0.000000
      f-2     :    -0.000000
      f+3     :    -0.000000
      f-3     :     0.000000
      g0      :    -0.000000  g :     0.000000
      g+1     :     0.000000
      g-1     :     0.000000
      g+2     :    -0.000000
      g-2     :     0.000000
      g+3     :    -0.000000
      g-3     :     0.000000
      g+4     :     0.000000
      g-4     :     0.000000
  1 Cls       :    -0.000000  s :    -0.000000
      pz      :    -0.000000  p :     0.000000
      px      :     0.000000
      py      :     0.000000
      dz2     :    -0.000000  d :    -0.000000
      dxz     :    -0.000000
      dyz     :     0.000000
      dx2y2   :     0.000000
      dxy     :    -0.000000
      f0      :     0.000000  f :     0.000000
      f+1     :     0.000000
      f-1     :    -0.000000
      f+2     :    -0.000000
      f-2     :     0.000000
      f+3     :    -0.000000
      f-3     :    -0.000000
      g0      :     0.000000  g :     0.000000
      g+1     :     0.000000
      g-1     :     0.000000
      g+2     :     0.000000
      g-2     :    -0.000000
      g+3     :    -0.000000
      g-3     :     0.000000
      g+4     :     0.000000
      g-4     :    -0.000000
      h0      :     0.000000  h :     0.000000
      h+1     :    -0.000000
      h-1     :    -0.000000
      h+2     :    -0.000000
      h-2     :     0.000000
      h+3     :    -0.000000
      h-3     :    -0.000000
      h+4     :     0.000000
      h-4     :     0.000000
      h+5     :     0.000000
      h-5     :     0.000000


                      *****************************
                      * MAYER POPULATION ANALYSIS *
                      *****************************

  NA   - Mulliken gross atomic population
  ZA   - Total nuclear charge
  QA   - Mulliken gross atomic charge
  VA   - Mayer's total valence
  BVA  - Mayer's bonded valence
  FA   - Mayer's free valence

  ATOM       NA         ZA         QA         VA         BVA        FA
  0 Li     2.3879     3.0000     0.6121     0.6988     0.6988    -0.0000
  1 Cl    17.6121    17.0000    -0.6121     0.6988     0.6988    -0.0000

  Mayer bond orders larger than 0.1
B(  0-Li,  1-Cl) :   0.6988 

-------
TIMINGS
-------

Total SCF time: 0 days 0 hours 2 min 52 sec 

Total time                  ....     172.318 sec
Sum of individual times     ....     171.754 sec  ( 99.7%)

Fock matrix formation       ....     170.487 sec  ( 98.9%)
  XC integration            ....       8.902 sec  (  5.2% of F)
    Basis function eval.    ....       0.439 sec  (  4.9% of XC)
    Density eval.           ....       0.877 sec  (  9.8% of XC)
    XC-Functional eval.     ....       0.118 sec  (  1.3% of XC)
    XC-Potential eval.      ....       2.599 sec  ( 29.2% of XC)
Diagonalization             ....       0.349 sec  (  0.2%)
Density matrix formation    ....       0.007 sec  (  0.0%)
Population analysis         ....       0.140 sec  (  0.1%)
Initial guess               ....       0.279 sec  (  0.2%)
Orbital Transformation      ....       0.000 sec  (  0.0%)
Orbital Orthonormalization  ....       0.000 sec  (  0.0%)
DIIS solution               ....       0.234 sec  (  0.1%)
Grid generation             ....       0.258 sec  (  0.1%)

-------------------------   --------------------
FINAL SINGLE POINT ENERGY      -467.615096608120
-------------------------   --------------------


                            ***************************************
                            *     ORCA property calculations      *
                            ***************************************

                                    ---------------------
                                    Active property flags
                                    ---------------------
   (+) Dipole Moment


------------------------------------------------------------------------------
                       ORCA ELECTRIC PROPERTIES CALCULATION
------------------------------------------------------------------------------

Dipole Moment Calculation                       ... on
Quadrupole Moment Calculation                   ... off
Polarizability Calculation                      ... off
GBWName                                         ... licl_pbe_-0001_z.gbw
Electron density file                           ... licl_pbe_-0001_z.scfp.tmp
The origin for moment calculation is the CENTER OF MASS  = ( 0.000000,  0.000000  3.193370)

-------------
DIPOLE MOMENT
-------------
                                X             Y             Z
Electronic contribution:     -0.00000       0.00000      -3.77184
Nuclear contribution   :      0.00000       0.00000       1.04827
                        -----------------------------------------
Total Dipole Moment    :     -0.00000       0.00000      -2.72356
                        -----------------------------------------
Magnitude (a.u.)       :      2.72356
Magnitude (Debye)      :      6.92274



--------------------
Rotational spectrum 
--------------------
 
Rotational constants in cm-1:     0.000000     0.711250     0.711250 
Rotational constants in MHz :     0.000000 21322.753260 21322.753260 

 Dipole components along the rotational axes: 
x,y,z [a.u.] :    -2.723562     0.000000    -0.000000 
x,y,z [Debye]:    -6.922745     0.000000    -0.000000 

 

Timings for individual modules:

Sum of individual times         ...      173.938 sec (=   2.899 min)
GTO integral calculation        ...        1.312 sec (=   0.022 min)   0.8 %
SCF iterations                  ...      172.625 sec (=   2.877 min)  99.2 %
                             ****ORCA TERMINATED NORMALLY****
TOTAL RUN TIME: 0 days 0 hours 2 minutes 54 seconds 976 msec
