
                                 *****************
                                 * O   R   C   A *
                                 *****************

           --- An Ab Initio, DFT and Semiempirical electronic structure package ---

                  #######################################################
                  #                        -***-                        #
                  #          Department of theory and spectroscopy      #
                  #               Directorship: Frank Neese             #
                  #        Max Planck Institute fuer Kohlenforschung    #
                  #                Kaiser Wilhelm Platz 1               #
                  #                 D-45470 Muelheim/Ruhr               #
                  #                      Germany                        #
                  #                                                     #
                  #                  All rights reserved                #
                  #                        -***-                        #
                  #######################################################


                         Program Version 4.1.2  - RELEASE  -


 With contributions from (in alphabetic order):
   Daniel Aravena         : Magnetic Properties
   Michael Atanasov       : Ab Initio Ligand Field Theory
   Alexander A. Auer      : GIAO ZORA
   Ute Becker             : Parallelization
   Giovanni Bistoni       : ED, Open-shell LED
   Martin Brehm           : Molecular dynamics
   Dmytro Bykov           : SCF Hessian
   Vijay G. Chilkuri      : MRCI spin determinant printing
   Dipayan Datta          : RHF DLPNO-CCSD density
   Achintya Kumar Dutta   : EOM-CC, STEOM-CC
   Dmitry Ganyushin       : Spin-Orbit,Spin-Spin,Magnetic field MRCI
   Miquel Garcia          : C-PCM Hessian
   Yang Guo               : DLPNO-NEVPT2, CIM, IAO-localization
   Andreas Hansen         : Spin unrestricted coupled pair/coupled cluster methods
   Benjamin Helmich-Paris : CASSCF linear response (MC-RPA)
   Lee Huntington         : MR-EOM, pCC
   Robert Izsak           : Overlap fitted RIJCOSX, COSX-SCS-MP3, EOM
   Christian Kollmar      : KDIIS, OOCD, Brueckner-CCSD(T), CCSD density
   Simone Kossmann        : Meta GGA functionals, TD-DFT gradient, OOMP2, MP2 Hessian
   Martin Krupicka        : AUTO-CI
   Lucas Lang             : DCDCAS
   Dagmar Lenk            : GEPOL surface, SMD
   Dimitrios Liakos       : Extrapolation schemes; parallel MDCI
   Dimitrios Manganas     : ROCIS; embedding schemes
   Dimitrios Pantazis     : SARC Basis sets
   Taras Petrenko         : DFT Hessian,TD-DFT gradient, ASA, ECA, R-Raman, ABS, FL, XAS/XES, NRVS
   Peter Pinski           : DLPNO-MP2, DLPNO-MP2 Gradient
   Christoph Reimann      : Effective Core Potentials
   Marius Retegan         : Local ZFS, SOC
   Christoph Riplinger    : Optimizer, TS searches, QM/MM, DLPNO-CCSD(T), (RO)-DLPNO pert. Triples
   Tobias Risthaus        : Range-separated hybrids, TD-DFT gradient, RPA, STAB
   Michael Roemelt        : Restricted open shell CIS
   Masaaki Saitow         : Open-shell DLPNO
   Barbara Sandhoefer     : DKH picture change effects
   Avijit Sen             : IP-ROCIS
   Kantharuban Sivalingam : CASSCF convergence, NEVPT2, FIC-MRCI
   Bernardo de Souza      : ESD, SOC TD-DFT
   Georgi Stoychev        : AutoAux, RI-MP2 NMR
   Willem Van den Heuvel  : Paramagnetic NMR
   Boris Wezisla          : Elementary symmetry handling
   Frank Wennmohs         : Technical directorship


 We gratefully acknowledge several colleagues who have allowed us to
 interface, adapt or use parts of their codes:
   Stefan Grimme, W. Hujo, H. Kruse,             : VdW corrections, initial TS optimization,
                  C. Bannwarth                     DFT functionals, gCP, sTDA/sTD-DF
   Ed Valeev                                     : LibInt (2-el integral package), F12 methods
   Garnet Chan, S. Sharma, J. Yang, R. Olivares  : DMRG
   Ulf Ekstrom                                   : XCFun DFT Library
   Mihaly Kallay                                 : mrcc  (arbitrary order and MRCC methods)
   Andreas Klamt, Michael Diedenhofen            : otool_cosmo (COSMO solvation model)
   Jiri Pittner, Ondrej Demel                    : Mk-CCSD
   Frank Weinhold                                : gennbo (NPA and NBO analysis)
   Christopher J. Cramer and Donald G. Truhlar   : smd solvation model
   Lars Goerigk                                  : TD-DFT with DH, B97 family of functionals
   V. Asgeirsson, H. Jonsson                     : NEB implementation
   FAccTs GmbH                                   : IRC, NEB, NEB-TS, Multilevel


 Your calculation uses the libint2 library for the computation of 2-el integrals
 For citations please refer to: http://libint.valeyev.net

 This ORCA versions uses:
   CBLAS   interface :  Fast vector & matrix operations
   LAPACKE interface :  Fast linear algebra routines
   SCALAPACK package :  Parallel linear algebra routines


----- Orbital basis set information -----
Your calculation utilizes the basis: aug-pc-4
   H, C-F              : F. Jensen, J. Chem. Phys. 115, 9113 (2001).
                         F. Jensen, J. Chem. Phys. 116, 7372 (2002).
                         F. Jensen, J. Chem. Phys. 117, 9234 (2002).
   Si-Cl               : F. Jensen, T. Helgaker, J. Chem. Phys. 121, 3463 (2004).
   He-B, Ne-Mg, Al, Ar : F. Jensen, J. Phys. Chem. A 111, 11198 (2007).
   K, Ca, Ga-Kr        : F. Jensen, J. Chem. Phys. 136, 094110 (2012).
   Sc-Zn               : F. Jensen, J. Chem. Phys. 138, 014107 (2013).

================================================================================
                                        WARNINGS
                       Please study these warnings very carefully!
================================================================================


INFO   : the flag for use of LIBINT has been found!

================================================================================
                                       INPUT FILE
================================================================================
NAME = licl_pbe_00.inp
|  1> !uks pbe nori aug-pc-4 grid5 nofinalgrid verytightscf
|  2> 
|  3> %maxcore 6000
|  4> 
|  5> %pal nprocs 4 end
|  6> 
|  7> %scf
|  8> 	efield 0.0, 0.0, 0.0
|  9> 	maxiter 200
| 10> end
| 11> 
| 12> * xyz 0 1
| 13> Li 0.0000 0.0000 0.0000
| 14> Cl 0.0000 0.0000 2.0207
| 15> *
| 16> 
| 17>                          ****END OF INPUT****
================================================================================

                       ****************************
                       * Single Point Calculation *
                       ****************************

---------------------------------
CARTESIAN COORDINATES (ANGSTROEM)
---------------------------------
  Li     0.000000    0.000000    0.000000
  Cl     0.000000    0.000000    2.020700

----------------------------
CARTESIAN COORDINATES (A.U.)
----------------------------
  NO LB      ZA    FRAG     MASS         X           Y           Z
   0 Li    3.0000    0     6.941    0.000000    0.000000    0.000000
   1 Cl   17.0000    0    35.453    0.000000    0.000000    3.818570

--------------------------------
INTERNAL COORDINATES (ANGSTROEM)
--------------------------------
 Li     0   0   0     0.000000000000     0.00000000     0.00000000
 Cl     1   0   0     2.020700000000     0.00000000     0.00000000

---------------------------
INTERNAL COORDINATES (A.U.)
---------------------------
 Li     0   0   0     0.000000000000     0.00000000     0.00000000
 Cl     1   0   0     3.818569598815     0.00000000     0.00000000

---------------------
BASIS SET INFORMATION
---------------------
There are 2 groups of distinct atoms

 Group   1 Type Li  : 31s9p4d3f2g contracted to 9s5p4d3f2g pattern {12121111111/51111/1111/111/11}
 Group   2 Type Cl  : 44s27p7d4f3g2h contracted to 8s7p7d4f3g2h pattern {15121211111/111111111/1111111/1111/111/11}

Atom   0Li   basis set group =>   1
Atom   1Cl   basis set group =>   2


           ************************************************************
           *        Program running with 4 parallel MPI-processes     *
           *              working on a common directory               *
           ************************************************************
------------------------------------------------------------------------------
                           ORCA GTO INTEGRAL CALCULATION
------------------------------------------------------------------------------

                         BASIS SET STATISTICS AND STARTUP INFO

 # of primitive gaussian shells          ...  136
 # of primitive gaussian functions       ...  354
 # of contracted shells                  ...   54
 # of contracted basis functions         ...  224
 Highest angular momentum                ...    5
 Maximum contraction depth               ...   15
 Integral package used                   ... LIBINT
 Integral threshhold            Thresh   ...  1.000e-12
 Primitive cut-off              TCut     ...  1.000e-14


------------------------------ INTEGRAL EVALUATION ----------------------------


 * One electron integrals 
 Pre-screening matrix                    ... done
 Shell pair data                         ... done (   0.001 sec)



           ************************************************************
           *        Program running with 4 parallel MPI-processes     *
           *              working on a common directory               *
           ************************************************************
-------------------------------------------------------------------------------
                                 ORCA SCF
-------------------------------------------------------------------------------

------------
SCF SETTINGS
------------
Hamiltonian:
 Density Functional     Method          .... DFT(GTOs)
 Exchange Functional    Exchange        .... PBE
   PBE kappa parameter   XKappa         ....  0.804000
   PBE mue parameter    XMuePBE         ....  0.219520
 Correlation Functional Correlation     .... PBE
   PBE beta parameter  CBetaPBE         ....  0.066725
 LDA part of GGA corr.  LDAOpt          .... PW91-LDA
 Gradients option       PostSCFGGA      .... off
   Density functional embedding theory  .... OFF
   NL short-range parameter             ....  6.400000


General Settings:
 Integral files         IntName         .... licl_pbe_00
 Hartree-Fock type      HFTyp           .... UHF
 Total Charge           Charge          ....    0
 Multiplicity           Mult            ....    1
 Number of Electrons    NEL             ....   20
 Basis Dimension        Dim             ....  224
 Nuclear Repulsion      ENuc            ....     13.3557864222 Eh

Convergence Acceleration:
 DIIS                   CNVDIIS         .... on
   Start iteration      DIISMaxIt       ....    12
   Startup error        DIISStart       ....  0.200000
   # of expansion vecs  DIISMaxEq       ....     5
   Bias factor          DIISBfac        ....   1.050
   Max. coefficient     DIISMaxC        ....  10.000
 Newton-Raphson         CNVNR           .... off
 SOSCF                  CNVSOSCF        .... off
 Level Shifting         CNVShift        .... on
   Level shift para.    LevelShift      ....    0.2500
   Turn off err/grad.   ShiftErr        ....    0.0010
 Zerner damping         CNVZerner       .... off
 Static damping         CNVDamp         .... on
   Fraction old density DampFac         ....    0.7000
   Max. Damping (<1)    DampMax         ....    0.9800
   Min. Damping (>=0)   DampMin         ....    0.0000
   Turn off err/grad.   DampErr         ....    0.1000
 Fernandez-Rico         CNVRico         .... off

SCF Procedure:
 Maximum # iterations   MaxIter         ....   200
 SCF integral mode      SCFMode         .... Direct
   Integral package                     .... LIBINT
 Reset frequency        DirectResetFreq ....    20
 Integral Threshold     Thresh          ....  1.000e-12 Eh
 Primitive CutOff       TCut            ....  1.000e-14 Eh

Convergence Tolerance:
 Convergence Check Mode ConvCheckMode   .... Total+1el-Energy
 Convergence forced     ConvForced      .... 0
 Energy Change          TolE            ....  1.000e-09 Eh
 1-El. energy change                    ....  1.000e-06 Eh
 DIIS Error             TolErr          ....  1.000e-08


Diagonalization of the overlap matrix:
Smallest eigenvalue                        ... 1.441e-05
Time for diagonalization                   ...    0.008 sec
Threshold for overlap eigenvalues          ... 1.000e-08
Number of eigenvalues below threshold      ... 0
Time for construction of square roots      ...    0.008 sec
Total time needed                          ...    0.016 sec

-------------------
DFT GRID GENERATION
-------------------

General Integration Accuracy     IntAcc      ...  5.010
Radial Grid Type                 RadialGrid  ... Gauss-Chebyshev
Angular Grid (max. acc.)         AngularGrid ... Lebedev-434
Angular grid pruning method      GridPruning ... 3 (G Style)
Weight generation scheme         WeightScheme... Becke
Basis function cutoff            BFCut       ...    1.0000e-12
Integration weight cutoff        WCut        ...    1.0000e-14
Grids for H and He will be reduced by one unit

# of grid points (after initial pruning)     ...  22246 (   0.0 sec)
# of grid points (after weights+screening)   ...  22158 (   0.0 sec)
nearest neighbour list constructed           ...    0.0 sec
Grid point re-assignment to atoms done       ...    0.0 sec
Grid point division into batches done        ...    0.2 sec
Reduced shell lists constructed in    0.2 sec

Total number of grid points                  ...    22158
Total number of batches                      ...      347
Average number of points per batch           ...       63
Average number of grid points per atom       ...    11079
Average number of shells per batch           ...    31.51 (58.35%)
Average number of basis functions per batch  ...   126.83 (56.62%)
Average number of large shells per batch     ...    26.61 (84.46%)
Average number of large basis fcns per batch ...   106.27 (83.79%)
Maximum spatial batch extension              ...  32.58, 32.58, 30.97 au
Average spatial batch extension              ...   2.49,  2.44,  2.06 au

Time for grid setup =    0.259 sec

------------------------------
INITIAL GUESS: MODEL POTENTIAL
------------------------------
Loading Hartree-Fock densities                     ... done
Calculating cut-offs                               ... done
Setting up the integral package                    ... done
Initializing the effective Hamiltonian             ... done
Starting the Coulomb interaction                   ... done (   0.0 sec)
Reading the grid                                   ... done
Mapping shells                                     ... done
Starting the XC term evaluation                    ... done (   0.1 sec)
  promolecular density results
     # of electrons  =     20.000032600
     EX              =    -29.120365965
     EC              =     -0.714535439
     EX+EC           =    -29.834901404
Transforming the Hamiltonian                       ... done (   0.0 sec)
Diagonalizing the Hamiltonian                      ... done (   0.0 sec)
Back transforming the eigenvectors                 ... done (   0.0 sec)
Now organizing SCF variables                       ... done
                      ------------------
                      INITIAL GUESS DONE (   0.5 sec)
                      ------------------
--------------
SCF ITERATIONS
--------------
ITER       Energy         Delta-E        Max-DP      RMS-DP      [F,P]     Damp
               ***  Starting incremental Fock matrix formation  ***
  0   -467.5657895082   0.000000000000 0.03910414  0.00035921  0.1355003 0.7000
  1   -467.5881089182  -0.022319409979 0.01973603  0.00023126  0.0691949 0.7000
                               ***Turning on DIIS***
  2   -467.5971591344  -0.009050216212 0.02191415  0.00035009  0.0241367 0.0000
  3   -467.6063987366  -0.009239602217 0.02178604  0.00018668  0.0514586 0.0000
  4   -467.6118391840  -0.005440447420 0.00349687  0.00005556  0.0144405 0.0000
  5   -467.6122960779  -0.000456893909 0.00086425  0.00001619  0.0054512 0.0000
  6   -467.6123720768  -0.000075998832 0.00030427  0.00000691  0.0020087 0.0000
  7   -467.6123843761  -0.000012299290 0.00037135  0.00000646  0.0009497 0.0000
  8   -467.6123884036  -0.000004027554 0.00004234  0.00000084  0.0002178 0.0000
  9   -467.6123884553  -0.000000051661 0.00001651  0.00000029  0.0001184 0.0000
 10   -467.6123884731  -0.000000017831 0.00000330  0.00000004  0.0000045 0.0000
 11   -467.6123884731  -0.000000000020 0.00000152  0.00000001  0.0000005 0.0000
 12   -467.6123884731   0.000000000002 0.00000045  0.00000001  0.0000002 0.0000
                 **** Energy Check signals convergence ****

               *****************************************************
               *                     SUCCESS                       *
               *           SCF CONVERGED AFTER  13 CYCLES          *
               *****************************************************


----------------
TOTAL SCF ENERGY
----------------

Total Energy       :         -467.61238847 Eh          -12724.37999 eV

Components:
Nuclear Repulsion  :           13.35578642 Eh             363.42942 eV
Electronic Energy  :         -480.96817490 Eh          -13087.80941 eV
One Electron Energy:         -673.67193057 Eh          -18331.54519 eV
Two Electron Energy:          192.70375567 Eh            5243.73578 eV

Virial components:
Potential Energy   :         -934.79209767 Eh          -25436.98617 eV
Kinetic Energy     :          467.17970920 Eh           12712.60618 eV
Virial Ratio       :            2.00092615


DFT components:
N(Alpha)           :       10.000012498601 electrons
N(Beta)            :       10.000012498601 electrons
N(Total)           :       20.000024997202 electrons
E(X)               :      -29.241032325725 Eh       
E(C)               :       -0.728731779372 Eh       
E(XC)              :      -29.969764105096 Eh       
DFET-embed. en.    :        0.000000000000 Eh       

---------------
SCF CONVERGENCE
---------------

  Last Energy change         ...   -1.1369e-13  Tolerance :   1.0000e-09
  Last MAX-Density change    ...    4.2596e-07  Tolerance :   1.0000e-08
  Last RMS-Density change    ...    5.7542e-09  Tolerance :   1.0000e-09
  Last DIIS Error            ...    6.7023e-09  Tolerance :   1.0000e-08

             **** THE GBW FILE WAS UPDATED (licl_pbe_00.gbw) ****
             **** DENSITY FILE WAS UPDATED (licl_pbe_00.scfp.tmp) ****
             **** ENERGY FILE WAS UPDATED (licl_pbe_00.en.tmp) ****
----------------------
UHF SPIN CONTAMINATION
----------------------

Warning: in a DFT calculation there is little theoretical justification to 
         calculate <S**2> as in Hartree-Fock theory. We will do it anyways
         but you should keep in mind that the values have only limited relevance

Expectation value of <S**2>     :     0.000000
Ideal value S*(S+1) for S=0.0   :     0.000000
Deviation                       :     0.000000

----------------
ORBITAL ENERGIES
----------------
                 SPIN UP ORBITALS
  NO   OCC          E(Eh)            E(eV) 
   0   1.0000    -100.553332     -2736.1953 
   1   1.0000      -9.078615      -247.0417 
   2   1.0000      -6.894810      -187.6173 
   3   1.0000      -6.894219      -187.6012 
   4   1.0000      -6.894219      -187.6012 
   5   1.0000      -1.897176       -51.6248 
   6   1.0000      -0.643489       -17.5102 
   7   1.0000      -0.237410        -6.4603 
   8   1.0000      -0.216000        -5.8777 
   9   1.0000      -0.216000        -5.8777 
  10   0.0000      -0.066133        -1.7996 
  11   0.0000      -0.007548        -0.2054 
  12   0.0000      -0.007548        -0.2054 
  13   0.0000       0.003748         0.1020 
  14   0.0000       0.008779         0.2389 
  15   0.0000       0.021076         0.5735 
  16   0.0000       0.021076         0.5735 
  17   0.0000       0.033797         0.9197 
  18   0.0000       0.042430         1.1546 
  19   0.0000       0.048371         1.3162 
  20   0.0000       0.048371         1.3162 
  21   0.0000       0.049905         1.3580 
  22   0.0000       0.051759         1.4084 
  23   0.0000       0.051759         1.4084 
  24   0.0000       0.069051         1.8790 
  25   0.0000       0.069051         1.8790 
  26   0.0000       0.079416         2.1610 
  27   0.0000       0.098922         2.6918 
  28   0.0000       0.098922         2.6918 
  29   0.0000       0.102453         2.7879 
  30   0.0000       0.102453         2.7879 
  31   0.0000       0.104670         2.8482 
  32   0.0000       0.104670         2.8482 
  33   0.0000       0.108951         2.9647 
  34   0.0000       0.125920         3.4265 
  35   0.0000       0.138393         3.7659 
  36   0.0000       0.138393         3.7659 
  37   0.0000       0.154684         4.2092 
  38   0.0000       0.161565         4.3964 
  39   0.0000       0.161565         4.3964 
  40   0.0000       0.161734         4.4010 
  41   0.0000       0.166167         4.5216 
  42   0.0000       0.166167         4.5216 
  43   0.0000       0.166592         4.5332 
  44   0.0000       0.166592         4.5332 
  45   0.0000       0.169633         4.6159 
  46   0.0000       0.169633         4.6159 
  47   0.0000       0.181630         4.9424 
  48   0.0000       0.181630         4.9424 
  49   0.0000       0.187491         5.1019 
  50   0.0000       0.187982         5.1153 
  51   0.0000       0.187982         5.1153 
  52   0.0000       0.221032         6.0146 
  53   0.0000       0.258424         7.0321 
  54   0.0000       0.258424         7.0321 
  55   0.0000       0.279308         7.6003 
  56   0.0000       0.307438         8.3658 
  57   0.0000       0.307438         8.3658 
  58   0.0000       0.315747         8.5919 
  59   0.0000       0.315747         8.5919 
  60   0.0000       0.329942         8.9782 
  61   0.0000       0.337381         9.1806 
  62   0.0000       0.386758        10.5242 
  63   0.0000       0.386758        10.5242 
  64   0.0000       0.396158        10.7800 
  65   0.0000       0.396158        10.7800 
  66   0.0000       0.401604        10.9282 
  67   0.0000       0.401604        10.9282 
  68   0.0000       0.420743        11.4490 
  69   0.0000       0.420743        11.4490 
  70   0.0000       0.421095        11.4586 
  71   0.0000       0.428207        11.6521 
  72   0.0000       0.428207        11.6521 
  73   0.0000       0.468025        12.7356 
  74   0.0000       0.525810        14.3080 
  75   0.0000       0.525810        14.3080 
  76   0.0000       0.540544        14.7090 
  77   0.0000       0.540544        14.7090 
  78   0.0000       0.568743        15.4763 
  79   0.0000       0.573241        15.5987 
  80   0.0000       0.573241        15.5987 
  81   0.0000       0.619998        16.8710 
  82   0.0000       0.619998        16.8710 
  83   0.0000       0.626176        17.0391 
  84   0.0000       0.629118        17.1192 
  85   0.0000       0.629118        17.1192 
  86   0.0000       0.681535        18.5455 
  87   0.0000       0.748277        20.3616 
  88   0.0000       0.748277        20.3616 
  89   0.0000       0.762569        20.7506 
  90   0.0000       0.768188        20.9035 
  91   0.0000       0.768188        20.9035 
  92   0.0000       0.808634        22.0041 
  93   0.0000       0.808634        22.0041 
  94   0.0000       0.813595        22.1390 
  95   0.0000       0.813595        22.1390 
  96   0.0000       0.841345        22.8941 
  97   0.0000       0.841345        22.8942 
  98   0.0000       0.842094        22.9145 
  99   0.0000       0.851712        23.1763 
 100   0.0000       0.851712        23.1763 
 101   0.0000       0.906312        24.6620 
 102   0.0000       0.906312        24.6620 
 103   0.0000       0.911760        24.8102 
 104   0.0000       0.944078        25.6897 
 105   0.0000       0.944078        25.6897 
 106   0.0000       0.970213        26.4008 
 107   0.0000       0.970213        26.4008 
 108   0.0000       0.988618        26.9017 
 109   0.0000       0.988618        26.9017 
 110   0.0000       1.018559        27.7164 
 111   0.0000       1.068223        29.0678 
 112   0.0000       1.068223        29.0678 
 113   0.0000       1.109093        30.1800 
 114   0.0000       1.109093        30.1800 
 115   0.0000       1.133676        30.8489 
 116   0.0000       1.133676        30.8489 
 117   0.0000       1.149189        31.2710 
 118   0.0000       1.281809        34.8798 
 119   0.0000       1.349264        36.7153 
 120   0.0000       1.349264        36.7153 
 121   0.0000       1.454400        39.5762 
 122   0.0000       1.454400        39.5762 
 123   0.0000       1.517488        41.2930 
 124   0.0000       1.529353        41.6158 
 125   0.0000       1.529353        41.6158 
 126   0.0000       1.761674        47.9376 
 127   0.0000       1.761674        47.9376 
 128   0.0000       1.835317        49.9415 
 129   0.0000       1.875662        51.0393 
 130   0.0000       1.875662        51.0393 
 131   0.0000       1.881485        51.1978 
 132   0.0000       1.971882        53.6576 
 133   0.0000       2.017130        54.8889 
 134   0.0000       2.209590        60.1260 
 135   0.0000       2.209591        60.1260 
 136   0.0000       2.297075        62.5066 
 137   0.0000       2.297075        62.5066 
 138   0.0000       2.332702        63.4761 
 139   0.0000       2.332702        63.4761 
 140   0.0000       2.402684        65.3804 
 141   0.0000       2.402685        65.3804 
 142   0.0000       2.499658        68.0192 
 143   0.0000       2.506794        68.2133 
 144   0.0000       2.506794        68.2133 
 145   0.0000       2.680482        72.9396 
 146   0.0000       2.680482        72.9396 
 147   0.0000       2.695631        73.3518 
 148   0.0000       2.695633        73.3519 
 149   0.0000       2.718085        73.9629 
 150   0.0000       2.718086        73.9629 
 151   0.0000       2.798410        76.1486 
 152   0.0000       2.922098        79.5143 
 153   0.0000       2.922104        79.5145 
 154   0.0000       2.990226        81.3682 
 155   0.0000       2.990226        81.3682 
 156   0.0000       3.026753        82.3621 
 157   0.0000       3.026753        82.3621 
 158   0.0000       3.146651        85.6247 
 159   0.0000       3.346337        91.0585 
 160   0.0000       3.346338        91.0585 
 161   0.0000       3.580709        97.4360 
 162   0.0000       3.580709        97.4360 
 163   0.0000       3.591884        97.7401 
 164   0.0000       3.746708       101.9531 
 165   0.0000       3.746709       101.9531 
 166   0.0000       3.765040       102.4519 
 167   0.0000       3.765040       102.4519 
 168   0.0000       4.065650       110.6320 
 169   0.0000       4.065650       110.6320 
 170   0.0000       4.089246       111.2740 
 171   0.0000       4.214563       114.6841 
 172   0.0000       4.838984       131.6755 
 173   0.0000       4.838984       131.6755 
 174   0.0000       5.006807       136.2421 
 175   0.0000       5.235819       142.4739 
 176   0.0000       5.235819       142.4739 
 177   0.0000       5.437608       147.9648 
 178   0.0000       5.437608       147.9648 
 179   0.0000       5.756223       156.6348 
 180   0.0000       5.756238       156.6352 
 181   0.0000       5.760958       156.7636 
 182   0.0000       5.760958       156.7636 
 183   0.0000       5.773173       157.0960 
 184   0.0000       5.773173       157.0960 
 185   0.0000       5.827306       158.5691 
 186   0.0000       5.827320       158.5694 
 187   0.0000       5.872886       159.8094 
 188   0.0000       5.872886       159.8094 
 189   0.0000       5.913010       160.9012 
 190   0.0000       5.917733       161.0297 
 191   0.0000       5.917742       161.0299 
 192   0.0000       6.054082       164.7400 
 193   0.0000       6.302944       171.5118 
 194   0.0000       6.302944       171.5118 
 195   0.0000       6.342733       172.5945 
 196   0.0000       9.184418       249.9207 
 197   0.0000       9.184675       249.9277 
 198   0.0000       9.190388       250.0832 
 199   0.0000       9.190388       250.0832 
 200   0.0000       9.289500       252.7801 
 201   0.0000       9.289505       252.7803 
 202   0.0000       9.325667       253.7643 
 203   0.0000       9.558430       260.0981 
 204   0.0000       9.558430       260.0981 
 205   0.0000      10.667303       290.2721 
 206   0.0000      12.927525       351.7758 
 207   0.0000      12.927525       351.7758 
 208   0.0000      12.974433       353.0523 
 209   0.0000      12.974523       353.0547 
 210   0.0000      13.084156       356.0380 
 211   0.0000      13.084156       356.0380 
 212   0.0000      13.168204       358.3250 
 213   0.0000      17.686238       481.2670 
 214   0.0000      17.686319       481.2692 
 215   0.0000      17.781982       483.8723 
 216   0.0000      17.781982       483.8723 
 217   0.0000      17.991822       489.5824 
 218   0.0000      38.586870      1050.0021 
 219   0.0000      65.884832      1792.8174 
 220   0.0000      65.884871      1792.8185 
 221   0.0000      65.943290      1794.4082 
 222   0.0000      65.943290      1794.4082 
 223   0.0000      66.075828      1798.0147 

                 SPIN DOWN ORBITALS
  NO   OCC          E(Eh)            E(eV) 
   0   1.0000    -100.553332     -2736.1953 
   1   1.0000      -9.078615      -247.0417 
   2   1.0000      -6.894810      -187.6173 
   3   1.0000      -6.894219      -187.6012 
   4   1.0000      -6.894219      -187.6012 
   5   1.0000      -1.897176       -51.6248 
   6   1.0000      -0.643489       -17.5102 
   7   1.0000      -0.237410        -6.4603 
   8   1.0000      -0.216000        -5.8777 
   9   1.0000      -0.216000        -5.8777 
  10   0.0000      -0.066133        -1.7996 
  11   0.0000      -0.007548        -0.2054 
  12   0.0000      -0.007548        -0.2054 
  13   0.0000       0.003748         0.1020 
  14   0.0000       0.008779         0.2389 
  15   0.0000       0.021076         0.5735 
  16   0.0000       0.021076         0.5735 
  17   0.0000       0.033797         0.9197 
  18   0.0000       0.042430         1.1546 
  19   0.0000       0.048371         1.3162 
  20   0.0000       0.048371         1.3162 
  21   0.0000       0.049905         1.3580 
  22   0.0000       0.051759         1.4084 
  23   0.0000       0.051759         1.4084 
  24   0.0000       0.069051         1.8790 
  25   0.0000       0.069051         1.8790 
  26   0.0000       0.079416         2.1610 
  27   0.0000       0.098922         2.6918 
  28   0.0000       0.098922         2.6918 
  29   0.0000       0.102453         2.7879 
  30   0.0000       0.102453         2.7879 
  31   0.0000       0.104670         2.8482 
  32   0.0000       0.104670         2.8482 
  33   0.0000       0.108951         2.9647 
  34   0.0000       0.125920         3.4265 
  35   0.0000       0.138393         3.7659 
  36   0.0000       0.138393         3.7659 
  37   0.0000       0.154684         4.2092 
  38   0.0000       0.161565         4.3964 
  39   0.0000       0.161565         4.3964 
  40   0.0000       0.161734         4.4010 
  41   0.0000       0.166167         4.5216 
  42   0.0000       0.166167         4.5216 
  43   0.0000       0.166592         4.5332 
  44   0.0000       0.166592         4.5332 
  45   0.0000       0.169633         4.6159 
  46   0.0000       0.169633         4.6159 
  47   0.0000       0.181630         4.9424 
  48   0.0000       0.181630         4.9424 
  49   0.0000       0.187491         5.1019 
  50   0.0000       0.187982         5.1153 
  51   0.0000       0.187982         5.1153 
  52   0.0000       0.221032         6.0146 
  53   0.0000       0.258424         7.0321 
  54   0.0000       0.258424         7.0321 
  55   0.0000       0.279308         7.6003 
  56   0.0000       0.307438         8.3658 
  57   0.0000       0.307438         8.3658 
  58   0.0000       0.315747         8.5919 
  59   0.0000       0.315747         8.5919 
  60   0.0000       0.329942         8.9782 
  61   0.0000       0.337381         9.1806 
  62   0.0000       0.386758        10.5242 
  63   0.0000       0.386758        10.5242 
  64   0.0000       0.396158        10.7800 
  65   0.0000       0.396158        10.7800 
  66   0.0000       0.401604        10.9282 
  67   0.0000       0.401604        10.9282 
  68   0.0000       0.420743        11.4490 
  69   0.0000       0.420743        11.4490 
  70   0.0000       0.421095        11.4586 
  71   0.0000       0.428207        11.6521 
  72   0.0000       0.428207        11.6521 
  73   0.0000       0.468025        12.7356 
  74   0.0000       0.525810        14.3080 
  75   0.0000       0.525810        14.3080 
  76   0.0000       0.540544        14.7090 
  77   0.0000       0.540544        14.7090 
  78   0.0000       0.568743        15.4763 
  79   0.0000       0.573241        15.5987 
  80   0.0000       0.573241        15.5987 
  81   0.0000       0.619998        16.8710 
  82   0.0000       0.619998        16.8710 
  83   0.0000       0.626176        17.0391 
  84   0.0000       0.629118        17.1192 
  85   0.0000       0.629118        17.1192 
  86   0.0000       0.681535        18.5455 
  87   0.0000       0.748277        20.3616 
  88   0.0000       0.748277        20.3616 
  89   0.0000       0.762569        20.7506 
  90   0.0000       0.768188        20.9035 
  91   0.0000       0.768188        20.9035 
  92   0.0000       0.808634        22.0041 
  93   0.0000       0.808634        22.0041 
  94   0.0000       0.813595        22.1390 
  95   0.0000       0.813595        22.1390 
  96   0.0000       0.841345        22.8941 
  97   0.0000       0.841345        22.8942 
  98   0.0000       0.842094        22.9145 
  99   0.0000       0.851712        23.1763 
 100   0.0000       0.851712        23.1763 
 101   0.0000       0.906312        24.6620 
 102   0.0000       0.906312        24.6620 
 103   0.0000       0.911760        24.8102 
 104   0.0000       0.944078        25.6897 
 105   0.0000       0.944078        25.6897 
 106   0.0000       0.970213        26.4008 
 107   0.0000       0.970213        26.4008 
 108   0.0000       0.988618        26.9017 
 109   0.0000       0.988618        26.9017 
 110   0.0000       1.018559        27.7164 
 111   0.0000       1.068223        29.0678 
 112   0.0000       1.068223        29.0678 
 113   0.0000       1.109093        30.1800 
 114   0.0000       1.109093        30.1800 
 115   0.0000       1.133676        30.8489 
 116   0.0000       1.133676        30.8489 
 117   0.0000       1.149189        31.2710 
 118   0.0000       1.281809        34.8798 
 119   0.0000       1.349264        36.7153 
 120   0.0000       1.349264        36.7153 
 121   0.0000       1.454400        39.5762 
 122   0.0000       1.454400        39.5762 
 123   0.0000       1.517488        41.2930 
 124   0.0000       1.529353        41.6158 
 125   0.0000       1.529353        41.6158 
 126   0.0000       1.761674        47.9376 
 127   0.0000       1.761674        47.9376 
 128   0.0000       1.835317        49.9415 
 129   0.0000       1.875662        51.0393 
 130   0.0000       1.875662        51.0393 
 131   0.0000       1.881485        51.1978 
 132   0.0000       1.971882        53.6576 
 133   0.0000       2.017130        54.8889 
 134   0.0000       2.209590        60.1260 
 135   0.0000       2.209591        60.1260 
 136   0.0000       2.297075        62.5066 
 137   0.0000       2.297075        62.5066 
 138   0.0000       2.332702        63.4761 
 139   0.0000       2.332702        63.4761 
 140   0.0000       2.402684        65.3804 
 141   0.0000       2.402685        65.3804 
 142   0.0000       2.499658        68.0192 
 143   0.0000       2.506794        68.2133 
 144   0.0000       2.506794        68.2133 
 145   0.0000       2.680482        72.9396 
 146   0.0000       2.680482        72.9396 
 147   0.0000       2.695631        73.3518 
 148   0.0000       2.695633        73.3519 
 149   0.0000       2.718085        73.9629 
 150   0.0000       2.718086        73.9629 
 151   0.0000       2.798410        76.1486 
 152   0.0000       2.922098        79.5143 
 153   0.0000       2.922104        79.5145 
 154   0.0000       2.990226        81.3682 
 155   0.0000       2.990226        81.3682 
 156   0.0000       3.026753        82.3621 
 157   0.0000       3.026753        82.3621 
 158   0.0000       3.146651        85.6247 
 159   0.0000       3.346337        91.0585 
 160   0.0000       3.346338        91.0585 
 161   0.0000       3.580709        97.4360 
 162   0.0000       3.580709        97.4360 
 163   0.0000       3.591884        97.7401 
 164   0.0000       3.746708       101.9531 
 165   0.0000       3.746709       101.9531 
 166   0.0000       3.765040       102.4519 
 167   0.0000       3.765040       102.4519 
 168   0.0000       4.065650       110.6320 
 169   0.0000       4.065650       110.6320 
 170   0.0000       4.089246       111.2740 
 171   0.0000       4.214563       114.6841 
 172   0.0000       4.838984       131.6755 
 173   0.0000       4.838984       131.6755 
 174   0.0000       5.006807       136.2421 
 175   0.0000       5.235819       142.4739 
 176   0.0000       5.235819       142.4739 
 177   0.0000       5.437608       147.9648 
 178   0.0000       5.437608       147.9648 
 179   0.0000       5.756223       156.6348 
 180   0.0000       5.756238       156.6352 
 181   0.0000       5.760958       156.7636 
 182   0.0000       5.760958       156.7636 
 183   0.0000       5.773173       157.0960 
 184   0.0000       5.773173       157.0960 
 185   0.0000       5.827306       158.5691 
 186   0.0000       5.827320       158.5694 
 187   0.0000       5.872886       159.8094 
 188   0.0000       5.872886       159.8094 
 189   0.0000       5.913010       160.9012 
 190   0.0000       5.917733       161.0297 
 191   0.0000       5.917742       161.0299 
 192   0.0000       6.054082       164.7400 
 193   0.0000       6.302944       171.5118 
 194   0.0000       6.302944       171.5118 
 195   0.0000       6.342733       172.5945 
 196   0.0000       9.184418       249.9207 
 197   0.0000       9.184675       249.9277 
 198   0.0000       9.190388       250.0832 
 199   0.0000       9.190388       250.0832 
 200   0.0000       9.289500       252.7801 
 201   0.0000       9.289505       252.7803 
 202   0.0000       9.325667       253.7643 
 203   0.0000       9.558430       260.0981 
 204   0.0000       9.558430       260.0981 
 205   0.0000      10.667303       290.2721 
 206   0.0000      12.927525       351.7758 
 207   0.0000      12.927525       351.7758 
 208   0.0000      12.974433       353.0523 
 209   0.0000      12.974523       353.0547 
 210   0.0000      13.084156       356.0380 
 211   0.0000      13.084156       356.0380 
 212   0.0000      13.168204       358.3250 
 213   0.0000      17.686238       481.2670 
 214   0.0000      17.686319       481.2692 
 215   0.0000      17.781982       483.8723 
 216   0.0000      17.781982       483.8723 
 217   0.0000      17.991822       489.5824 
 218   0.0000      38.586870      1050.0021 
 219   0.0000      65.884832      1792.8174 
 220   0.0000      65.884871      1792.8185 
 221   0.0000      65.943290      1794.4082 
 222   0.0000      65.943290      1794.4082 
 223   0.0000      66.075828      1798.0147 

                    ********************************
                    * MULLIKEN POPULATION ANALYSIS *
                    ********************************

--------------------------------------------
MULLIKEN ATOMIC CHARGES AND SPIN POPULATIONS
--------------------------------------------
   0 Li:    0.606836    0.000000
   1 Cl:   -0.606836   -0.000000
Sum of atomic charges         :   -0.0000000
Sum of atomic spin populations:    0.0000000

-----------------------------------------------------
MULLIKEN REDUCED ORBITAL CHARGES AND SPIN POPULATIONS
-----------------------------------------------------
CHARGE
  0 Lis       :     2.086837  s :     2.086837
      pz      :     0.119076  p :     0.247588
      px      :     0.064256
      py      :     0.064256
      dz2     :     0.011627  d :     0.050292
      dxz     :     0.019332
      dyz     :     0.019332
      dx2y2   :     0.000000
      dxy     :     0.000000
      f0      :     0.001409  f :     0.008553
      f+1     :     0.003572
      f-1     :     0.003572
      f+2     :     0.000000
      f-2     :    -0.000000
      f+3     :     0.000000
      f-3     :     0.000000
      g0      :     0.000046  g :    -0.000106
      g+1     :    -0.000076
      g-1     :    -0.000076
      g+2     :     0.000000
      g-2     :     0.000000
      g+3     :     0.000000
      g-3     :     0.000000
      g+4     :     0.000000
      g-4     :     0.000000
  1 Cls       :     5.963109  s :     5.963109
      pz      :     3.809697  p :    11.629586
      px      :     3.909944
      py      :     3.909944
      dz2     :     0.004092  d :     0.009723
      dxz     :     0.002815
      dyz     :     0.002815
      dx2y2   :     0.000000
      dxy     :     0.000000
      f0      :     0.002430  f :     0.002766
      f+1     :     0.000168
      f-1     :     0.000168
      f+2     :    -0.000000
      f-2     :     0.000000
      f+3     :     0.000000
      f-3     :     0.000000
      g0      :     0.001262  g :     0.001245
      g+1     :    -0.000009
      g-1     :    -0.000009
      g+2     :    -0.000000
      g-2     :     0.000000
      g+3     :     0.000000
      g-3     :     0.000000
      g+4     :     0.000000
      g-4     :     0.000000
      h0      :     0.000415  h :     0.000407
      h+1     :    -0.000004
      h-1     :    -0.000004
      h+2     :    -0.000000
      h-2     :    -0.000000
      h+3     :     0.000000
      h-3     :     0.000000
      h+4     :     0.000000
      h-4     :     0.000000
      h+5     :     0.000000
      h-5     :     0.000000

SPIN
  0 Lis       :     0.000000  s :     0.000000
      pz      :    -0.000000  p :    -0.000000
      px      :     0.000000
      py      :    -0.000000
      dz2     :    -0.000000  d :    -0.000000
      dxz     :    -0.000000
      dyz     :    -0.000000
      dx2y2   :    -0.000000
      dxy     :    -0.000000
      f0      :     0.000000  f :    -0.000000
      f+1     :    -0.000000
      f-1     :    -0.000000
      f+2     :     0.000000
      f-2     :    -0.000000
      f+3     :    -0.000000
      f-3     :    -0.000000
      g0      :     0.000000  g :     0.000000
      g+1     :    -0.000000
      g-1     :    -0.000000
      g+2     :     0.000000
      g-2     :     0.000000
      g+3     :    -0.000000
      g-3     :     0.000000
      g+4     :    -0.000000
      g-4     :     0.000000
  1 Cls       :     0.000000  s :     0.000000
      pz      :    -0.000000  p :    -0.000000
      px      :     0.000000
      py      :     0.000000
      dz2     :    -0.000000  d :    -0.000000
      dxz     :    -0.000000
      dyz     :     0.000000
      dx2y2   :    -0.000000
      dxy     :     0.000000
      f0      :    -0.000000  f :    -0.000000
      f+1     :    -0.000000
      f-1     :     0.000000
      f+2     :     0.000000
      f-2     :    -0.000000
      f+3     :    -0.000000
      f-3     :     0.000000
      g0      :    -0.000000  g :    -0.000000
      g+1     :    -0.000000
      g-1     :     0.000000
      g+2     :     0.000000
      g-2     :    -0.000000
      g+3     :     0.000000
      g-3     :    -0.000000
      g+4     :    -0.000000
      g-4     :    -0.000000
      h0      :    -0.000000  h :    -0.000000
      h+1     :    -0.000000
      h-1     :     0.000000
      h+2     :    -0.000000
      h-2     :    -0.000000
      h+3     :     0.000000
      h-3     :    -0.000000
      h+4     :    -0.000000
      h-4     :     0.000000
      h+5     :    -0.000000
      h-5     :     0.000000


                     *******************************
                     * LOEWDIN POPULATION ANALYSIS *
                     *******************************

-------------------------------------------
LOEWDIN ATOMIC CHARGES AND SPIN POPULATIONS
-------------------------------------------
   0 Li:   -0.241314   -0.000000
   1 Cl:    0.241314    0.000000

----------------------------------------------------
LOEWDIN REDUCED ORBITAL CHARGES AND SPIN POPULATIONS
----------------------------------------------------
CHARGE
  0 Lis       :     2.091722  s :     2.091722
      pz      :     0.306420  p :     0.515285
      px      :     0.104432
      py      :     0.104432
      dz2     :     0.180144  d :     0.385144
      dxz     :     0.102500
      dyz     :     0.102500
      dx2y2   :     0.000000
      dxy     :     0.000000
      f0      :     0.082053  f :     0.216418
      f+1     :     0.067182
      f-1     :     0.067182
      f+2     :     0.000000
      f-2     :     0.000000
      f+3     :     0.000000
      f-3     :     0.000000
      g0      :     0.013810  g :     0.032745
      g+1     :     0.009468
      g-1     :     0.009468
      g+2     :     0.000000
      g-2     :     0.000000
      g+3     :     0.000000
      g-3     :     0.000000
      g+4     :     0.000000
      g-4     :     0.000000
  1 Cls       :     5.538615  s :     5.538615
      pz      :     3.707049  p :    11.132282
      px      :     3.712616
      py      :     3.712616
      dz2     :     0.021148  d :     0.024585
      dxz     :     0.001718
      dyz     :     0.001718
      dx2y2   :     0.000000
      dxy     :     0.000000
      f0      :     0.018146  f :     0.020063
      f+1     :     0.000958
      f-1     :     0.000958
      f+2     :     0.000000
      f-2     :     0.000000
      f+3     :     0.000000
      f-3     :     0.000000
      g0      :     0.020765  g :     0.022449
      g+1     :     0.000842
      g-1     :     0.000842
      g+2     :     0.000000
      g-2     :     0.000000
      g+3     :     0.000000
      g-3     :     0.000000
      g+4     :     0.000000
      g-4     :     0.000000
      h0      :     0.020127  h :     0.020692
      h+1     :     0.000282
      h-1     :     0.000282
      h+2     :     0.000000
      h-2     :     0.000000
      h+3     :     0.000000
      h-3     :     0.000000
      h+4     :     0.000000
      h-4     :     0.000000
      h+5     :     0.000000
      h-5     :     0.000000

SPIN
  0 Lis       :    -0.000000  s :    -0.000000
      pz      :     0.000000  p :     0.000000
      px      :     0.000000
      py      :     0.000000
      dz2     :    -0.000000  d :    -0.000000
      dxz     :    -0.000000
      dyz     :     0.000000
      dx2y2   :    -0.000000
      dxy     :     0.000000
      f0      :    -0.000000  f :    -0.000000
      f+1     :     0.000000
      f-1     :    -0.000000
      f+2     :    -0.000000
      f-2     :    -0.000000
      f+3     :     0.000000
      f-3     :    -0.000000
      g0      :    -0.000000  g :    -0.000000
      g+1     :     0.000000
      g-1     :    -0.000000
      g+2     :     0.000000
      g-2     :     0.000000
      g+3     :    -0.000000
      g-3     :     0.000000
      g+4     :    -0.000000
      g-4     :    -0.000000
  1 Cls       :     0.000000  s :     0.000000
      pz      :    -0.000000  p :     0.000000
      px      :     0.000000
      py      :     0.000000
      dz2     :     0.000000  d :     0.000000
      dxz     :    -0.000000
      dyz     :    -0.000000
      dx2y2   :    -0.000000
      dxy     :     0.000000
      f0      :    -0.000000  f :    -0.000000
      f+1     :     0.000000
      f-1     :     0.000000
      f+2     :     0.000000
      f-2     :     0.000000
      f+3     :    -0.000000
      f-3     :     0.000000
      g0      :    -0.000000  g :    -0.000000
      g+1     :     0.000000
      g-1     :     0.000000
      g+2     :     0.000000
      g-2     :     0.000000
      g+3     :     0.000000
      g-3     :    -0.000000
      g+4     :    -0.000000
      g-4     :    -0.000000
      h0      :     0.000000  h :     0.000000
      h+1     :    -0.000000
      h-1     :     0.000000
      h+2     :    -0.000000
      h-2     :     0.000000
      h+3     :     0.000000
      h-3     :    -0.000000
      h+4     :    -0.000000
      h-4     :     0.000000
      h+5     :    -0.000000
      h-5     :     0.000000


                      *****************************
                      * MAYER POPULATION ANALYSIS *
                      *****************************

  NA   - Mulliken gross atomic population
  ZA   - Total nuclear charge
  QA   - Mulliken gross atomic charge
  VA   - Mayer's total valence
  BVA  - Mayer's bonded valence
  FA   - Mayer's free valence

  ATOM       NA         ZA         QA         VA         BVA        FA
  0 Li     2.3932     3.0000     0.6068     0.7079     0.7079    -0.0000
  1 Cl    17.6068    17.0000    -0.6068     0.7079     0.7079     0.0000

  Mayer bond orders larger than 0.1
B(  0-Li,  1-Cl) :   0.7079 

-------
TIMINGS
-------

Total SCF time: 0 days 0 hours 2 min 53 sec 

Total time                  ....     173.807 sec
Sum of individual times     ....     173.203 sec  ( 99.7%)

Fock matrix formation       ....     171.910 sec  ( 98.9%)
  XC integration            ....      10.472 sec  (  6.1% of F)
    Basis function eval.    ....       0.435 sec  (  4.2% of XC)
    Density eval.           ....       0.798 sec  (  7.6% of XC)
    XC-Functional eval.     ....       0.115 sec  (  1.1% of XC)
    XC-Potential eval.      ....       2.543 sec  ( 24.3% of XC)
Diagonalization             ....       0.340 sec  (  0.2%)
Density matrix formation    ....       0.008 sec  (  0.0%)
Population analysis         ....       0.180 sec  (  0.1%)
Initial guess               ....       0.275 sec  (  0.2%)
Orbital Transformation      ....       0.000 sec  (  0.0%)
Orbital Orthonormalization  ....       0.000 sec  (  0.0%)
DIIS solution               ....       0.231 sec  (  0.1%)
Grid generation             ....       0.259 sec  (  0.1%)

-------------------------   --------------------
FINAL SINGLE POINT ENERGY      -467.612388473118
-------------------------   --------------------


                            ***************************************
                            *     ORCA property calculations      *
                            ***************************************

                                    ---------------------
                                    Active property flags
                                    ---------------------
   (+) Dipole Moment


------------------------------------------------------------------------------
                       ORCA ELECTRIC PROPERTIES CALCULATION
------------------------------------------------------------------------------

Dipole Moment Calculation                       ... on
Quadrupole Moment Calculation                   ... off
Polarizability Calculation                      ... off
GBWName                                         ... licl_pbe_00.gbw
Electron density file                           ... licl_pbe_00.scfp.tmp
The origin for moment calculation is the CENTER OF MASS  = ( 0.000000,  0.000000  3.193370)

-------------
DIPOLE MOMENT
-------------
                                X             Y             Z
Electronic contribution:     -0.00000      -0.00000      -3.74095
Nuclear contribution   :      0.00000       0.00000       1.04827
                        -----------------------------------------
Total Dipole Moment    :     -0.00000      -0.00000      -2.69267
                        -----------------------------------------
Magnitude (a.u.)       :      2.69267
Magnitude (Debye)      :      6.84423



--------------------
Rotational spectrum 
--------------------
 
Rotational constants in cm-1:     0.000000     0.711250     0.711250 
Rotational constants in MHz :     0.000000 21322.753260 21322.753260 

 Dipole components along the rotational axes: 
x,y,z [a.u.] :    -2.692672    -0.000000    -0.000000 
x,y,z [Debye]:    -6.844229    -0.000000    -0.000000 

 

Timings for individual modules:

Sum of individual times         ...      175.370 sec (=   2.923 min)
GTO integral calculation        ...        1.250 sec (=   0.021 min)   0.7 %
SCF iterations                  ...      174.120 sec (=   2.902 min)  99.3 %
                             ****ORCA TERMINATED NORMALLY****
TOTAL RUN TIME: 0 days 0 hours 2 minutes 56 seconds 47 msec
