
                                 *****************
                                 * O   R   C   A *
                                 *****************

           --- An Ab Initio, DFT and Semiempirical electronic structure package ---

                  #######################################################
                  #                        -***-                        #
                  #          Department of theory and spectroscopy      #
                  #               Directorship: Frank Neese             #
                  #        Max Planck Institute fuer Kohlenforschung    #
                  #                Kaiser Wilhelm Platz 1               #
                  #                 D-45470 Muelheim/Ruhr               #
                  #                      Germany                        #
                  #                                                     #
                  #                  All rights reserved                #
                  #                        -***-                        #
                  #######################################################


                         Program Version 4.1.2  - RELEASE  -


 With contributions from (in alphabetic order):
   Daniel Aravena         : Magnetic Properties
   Michael Atanasov       : Ab Initio Ligand Field Theory
   Alexander A. Auer      : GIAO ZORA
   Ute Becker             : Parallelization
   Giovanni Bistoni       : ED, Open-shell LED
   Martin Brehm           : Molecular dynamics
   Dmytro Bykov           : SCF Hessian
   Vijay G. Chilkuri      : MRCI spin determinant printing
   Dipayan Datta          : RHF DLPNO-CCSD density
   Achintya Kumar Dutta   : EOM-CC, STEOM-CC
   Dmitry Ganyushin       : Spin-Orbit,Spin-Spin,Magnetic field MRCI
   Miquel Garcia          : C-PCM Hessian
   Yang Guo               : DLPNO-NEVPT2, CIM, IAO-localization
   Andreas Hansen         : Spin unrestricted coupled pair/coupled cluster methods
   Benjamin Helmich-Paris : CASSCF linear response (MC-RPA)
   Lee Huntington         : MR-EOM, pCC
   Robert Izsak           : Overlap fitted RIJCOSX, COSX-SCS-MP3, EOM
   Christian Kollmar      : KDIIS, OOCD, Brueckner-CCSD(T), CCSD density
   Simone Kossmann        : Meta GGA functionals, TD-DFT gradient, OOMP2, MP2 Hessian
   Martin Krupicka        : AUTO-CI
   Lucas Lang             : DCDCAS
   Dagmar Lenk            : GEPOL surface, SMD
   Dimitrios Liakos       : Extrapolation schemes; parallel MDCI
   Dimitrios Manganas     : ROCIS; embedding schemes
   Dimitrios Pantazis     : SARC Basis sets
   Taras Petrenko         : DFT Hessian,TD-DFT gradient, ASA, ECA, R-Raman, ABS, FL, XAS/XES, NRVS
   Peter Pinski           : DLPNO-MP2, DLPNO-MP2 Gradient
   Christoph Reimann      : Effective Core Potentials
   Marius Retegan         : Local ZFS, SOC
   Christoph Riplinger    : Optimizer, TS searches, QM/MM, DLPNO-CCSD(T), (RO)-DLPNO pert. Triples
   Tobias Risthaus        : Range-separated hybrids, TD-DFT gradient, RPA, STAB
   Michael Roemelt        : Restricted open shell CIS
   Masaaki Saitow         : Open-shell DLPNO
   Barbara Sandhoefer     : DKH picture change effects
   Avijit Sen             : IP-ROCIS
   Kantharuban Sivalingam : CASSCF convergence, NEVPT2, FIC-MRCI
   Bernardo de Souza      : ESD, SOC TD-DFT
   Georgi Stoychev        : AutoAux, RI-MP2 NMR
   Willem Van den Heuvel  : Paramagnetic NMR
   Boris Wezisla          : Elementary symmetry handling
   Frank Wennmohs         : Technical directorship


 We gratefully acknowledge several colleagues who have allowed us to
 interface, adapt or use parts of their codes:
   Stefan Grimme, W. Hujo, H. Kruse,             : VdW corrections, initial TS optimization,
                  C. Bannwarth                     DFT functionals, gCP, sTDA/sTD-DF
   Ed Valeev                                     : LibInt (2-el integral package), F12 methods
   Garnet Chan, S. Sharma, J. Yang, R. Olivares  : DMRG
   Ulf Ekstrom                                   : XCFun DFT Library
   Mihaly Kallay                                 : mrcc  (arbitrary order and MRCC methods)
   Andreas Klamt, Michael Diedenhofen            : otool_cosmo (COSMO solvation model)
   Jiri Pittner, Ondrej Demel                    : Mk-CCSD
   Frank Weinhold                                : gennbo (NPA and NBO analysis)
   Christopher J. Cramer and Donald G. Truhlar   : smd solvation model
   Lars Goerigk                                  : TD-DFT with DH, B97 family of functionals
   V. Asgeirsson, H. Jonsson                     : NEB implementation
   FAccTs GmbH                                   : IRC, NEB, NEB-TS, Multilevel


 Your calculation uses the libint2 library for the computation of 2-el integrals
 For citations please refer to: http://libint.valeyev.net

 This ORCA versions uses:
   CBLAS   interface :  Fast vector & matrix operations
   LAPACKE interface :  Fast linear algebra routines
   SCALAPACK package :  Parallel linear algebra routines


----- Orbital basis set information -----
Your calculation utilizes the basis: aug-pc-4
   H, C-F              : F. Jensen, J. Chem. Phys. 115, 9113 (2001).
                         F. Jensen, J. Chem. Phys. 116, 7372 (2002).
                         F. Jensen, J. Chem. Phys. 117, 9234 (2002).
   Si-Cl               : F. Jensen, T. Helgaker, J. Chem. Phys. 121, 3463 (2004).
   He-B, Ne-Mg, Al, Ar : F. Jensen, J. Phys. Chem. A 111, 11198 (2007).
   K, Ca, Ga-Kr        : F. Jensen, J. Chem. Phys. 136, 094110 (2012).
   Sc-Zn               : F. Jensen, J. Chem. Phys. 138, 014107 (2013).

================================================================================
                                        WARNINGS
                       Please study these warnings very carefully!
================================================================================


INFO   : the flag for use of LIBINT has been found!

================================================================================
                                       INPUT FILE
================================================================================
NAME = licl_pbe_+0001_z.inp
|  1> !uks pbe nori aug-pc-4 grid5 nofinalgrid verytightscf
|  2> 
|  3> %maxcore 6000
|  4> 
|  5> %pal nprocs 4 end
|  6> 
|  7> %scf
|  8> 	efield 0.0, 0.0, 0.001
|  9> 	maxiter 200
| 10> end
| 11> 
| 12> * xyz 0 1
| 13> Li 0.0000 0.0000 0.0000
| 14> Cl 0.0000 0.0000 2.0207
| 15> *
| 16> 
| 17>                          ****END OF INPUT****
================================================================================

                       ****************************
                       * Single Point Calculation *
                       ****************************

---------------------------------
CARTESIAN COORDINATES (ANGSTROEM)
---------------------------------
  Li     0.000000    0.000000    0.000000
  Cl     0.000000    0.000000    2.020700

----------------------------
CARTESIAN COORDINATES (A.U.)
----------------------------
  NO LB      ZA    FRAG     MASS         X           Y           Z
   0 Li    3.0000    0     6.941    0.000000    0.000000    0.000000
   1 Cl   17.0000    0    35.453    0.000000    0.000000    3.818570

--------------------------------
INTERNAL COORDINATES (ANGSTROEM)
--------------------------------
 Li     0   0   0     0.000000000000     0.00000000     0.00000000
 Cl     1   0   0     2.020700000000     0.00000000     0.00000000

---------------------------
INTERNAL COORDINATES (A.U.)
---------------------------
 Li     0   0   0     0.000000000000     0.00000000     0.00000000
 Cl     1   0   0     3.818569598815     0.00000000     0.00000000

---------------------
BASIS SET INFORMATION
---------------------
There are 2 groups of distinct atoms

 Group   1 Type Li  : 31s9p4d3f2g contracted to 9s5p4d3f2g pattern {12121111111/51111/1111/111/11}
 Group   2 Type Cl  : 44s27p7d4f3g2h contracted to 8s7p7d4f3g2h pattern {15121211111/111111111/1111111/1111/111/11}

Atom   0Li   basis set group =>   1
Atom   1Cl   basis set group =>   2


           ************************************************************
           *        Program running with 4 parallel MPI-processes     *
           *              working on a common directory               *
           ************************************************************
------------------------------------------------------------------------------
                           ORCA GTO INTEGRAL CALCULATION
------------------------------------------------------------------------------

                         BASIS SET STATISTICS AND STARTUP INFO

 # of primitive gaussian shells          ...  136
 # of primitive gaussian functions       ...  354
 # of contracted shells                  ...   54
 # of contracted basis functions         ...  224
 Highest angular momentum                ...    5
 Maximum contraction depth               ...   15
 Integral package used                   ... LIBINT
 Integral threshhold            Thresh   ...  1.000e-12
 Primitive cut-off              TCut     ...  1.000e-14


------------------------------ INTEGRAL EVALUATION ----------------------------


 * One electron integrals 
 Pre-screening matrix                    ... done
 Shell pair data                         ... done (   0.001 sec)


An Electric Field will be added: 0.000e+00 0.000e+00 1.000e-03 au

  ... done adding electric field perturbation



           ************************************************************
           *        Program running with 4 parallel MPI-processes     *
           *              working on a common directory               *
           ************************************************************
-------------------------------------------------------------------------------
                                 ORCA SCF
-------------------------------------------------------------------------------

------------
SCF SETTINGS
------------
Hamiltonian:
 Density Functional     Method          .... DFT(GTOs)
 Exchange Functional    Exchange        .... PBE
   PBE kappa parameter   XKappa         ....  0.804000
   PBE mue parameter    XMuePBE         ....  0.219520
 Correlation Functional Correlation     .... PBE
   PBE beta parameter  CBetaPBE         ....  0.066725
 LDA part of GGA corr.  LDAOpt          .... PW91-LDA
 Gradients option       PostSCFGGA      .... off
   Density functional embedding theory  .... OFF
   NL short-range parameter             ....  6.400000


General Settings:
 Integral files         IntName         .... licl_pbe_+0001_z
 Hartree-Fock type      HFTyp           .... UHF
 Total Charge           Charge          ....    0
 Multiplicity           Mult            ....    1
 Number of Electrons    NEL             ....   20
 Basis Dimension        Dim             ....  224
 Nuclear Repulsion      ENuc            ....     13.3557864222 Eh

Convergence Acceleration:
 DIIS                   CNVDIIS         .... on
   Start iteration      DIISMaxIt       ....    12
   Startup error        DIISStart       ....  0.200000
   # of expansion vecs  DIISMaxEq       ....     5
   Bias factor          DIISBfac        ....   1.050
   Max. coefficient     DIISMaxC        ....  10.000
 Newton-Raphson         CNVNR           .... off
 SOSCF                  CNVSOSCF        .... off
 Level Shifting         CNVShift        .... on
   Level shift para.    LevelShift      ....    0.2500
   Turn off err/grad.   ShiftErr        ....    0.0010
 Zerner damping         CNVZerner       .... off
 Static damping         CNVDamp         .... on
   Fraction old density DampFac         ....    0.7000
   Max. Damping (<1)    DampMax         ....    0.9800
   Min. Damping (>=0)   DampMin         ....    0.0000
   Turn off err/grad.   DampErr         ....    0.1000
 Fernandez-Rico         CNVRico         .... off

SCF Procedure:
 Maximum # iterations   MaxIter         ....   200
 SCF integral mode      SCFMode         .... Direct
   Integral package                     .... LIBINT
 Reset frequency        DirectResetFreq ....    20
 Integral Threshold     Thresh          ....  1.000e-12 Eh
 Primitive CutOff       TCut            ....  1.000e-14 Eh

Convergence Tolerance:
 Convergence Check Mode ConvCheckMode   .... Total+1el-Energy
 Convergence forced     ConvForced      .... 0
 Energy Change          TolE            ....  1.000e-09 Eh
 1-El. energy change                    ....  1.000e-06 Eh
 DIIS Error             TolErr          ....  1.000e-08


Diagonalization of the overlap matrix:
Smallest eigenvalue                        ... 1.441e-05
Time for diagonalization                   ...    0.008 sec
Threshold for overlap eigenvalues          ... 1.000e-08
Number of eigenvalues below threshold      ... 0
Time for construction of square roots      ...    0.015 sec
Total time needed                          ...    0.023 sec

-------------------
DFT GRID GENERATION
-------------------

General Integration Accuracy     IntAcc      ...  5.010
Radial Grid Type                 RadialGrid  ... Gauss-Chebyshev
Angular Grid (max. acc.)         AngularGrid ... Lebedev-434
Angular grid pruning method      GridPruning ... 3 (G Style)
Weight generation scheme         WeightScheme... Becke
Basis function cutoff            BFCut       ...    1.0000e-12
Integration weight cutoff        WCut        ...    1.0000e-14
Grids for H and He will be reduced by one unit

# of grid points (after initial pruning)     ...  22246 (   0.0 sec)
# of grid points (after weights+screening)   ...  22158 (   0.0 sec)
nearest neighbour list constructed           ...    0.0 sec
Grid point re-assignment to atoms done       ...    0.0 sec
Grid point division into batches done        ...    0.2 sec
Reduced shell lists constructed in    0.2 sec

Total number of grid points                  ...    22158
Total number of batches                      ...      347
Average number of points per batch           ...       63
Average number of grid points per atom       ...    11079
Average number of shells per batch           ...    31.51 (58.35%)
Average number of basis functions per batch  ...   126.83 (56.62%)
Average number of large shells per batch     ...    26.61 (84.46%)
Average number of large basis fcns per batch ...   106.27 (83.79%)
Maximum spatial batch extension              ...  32.58, 32.58, 30.97 au
Average spatial batch extension              ...   2.49,  2.44,  2.06 au

Time for grid setup =    0.259 sec

------------------------------
INITIAL GUESS: MODEL POTENTIAL
------------------------------
Loading Hartree-Fock densities                     ... done
Calculating cut-offs                               ... done
Setting up the integral package                    ... done
Initializing the effective Hamiltonian             ... done
Starting the Coulomb interaction                   ... done (   0.0 sec)
Reading the grid                                   ... done
Mapping shells                                     ... done
Starting the XC term evaluation                    ... done (   0.1 sec)
  promolecular density results
     # of electrons  =     20.000032600
     EX              =    -29.120365965
     EC              =     -0.714535439
     EX+EC           =    -29.834901404
Transforming the Hamiltonian                       ... done (   0.0 sec)
Diagonalizing the Hamiltonian                      ... done (   0.0 sec)
Back transforming the eigenvectors                 ... done (   0.0 sec)
Now organizing SCF variables                       ... done
                      ------------------
                      INITIAL GUESS DONE (   0.5 sec)
                      ------------------
--------------
SCF ITERATIONS
--------------
ITER       Energy         Delta-E        Max-DP      RMS-DP      [F,P]     Damp
               ***  Starting incremental Fock matrix formation  ***
  0   -467.5631476011   0.000000000000 0.03899544  0.00035867  0.1351236 0.7000
  1   -467.5854524381  -0.022304836995 0.01966230  0.00023099  0.0689711 0.7000
                               ***Turning on DIIS***
  2   -467.5944999320  -0.009047493924 0.02173182  0.00035058  0.0240087 0.0000
  3   -467.6037066698  -0.009206737709 0.02174015  0.00018651  0.0514239 0.0000
  4   -467.6091573869  -0.005450717132 0.00348760  0.00005546  0.0144471 0.0000
  5   -467.6096172641  -0.000459877258 0.00085963  0.00001623  0.0054818 0.0000
  6   -467.6096945481  -0.000077283941 0.00030668  0.00000696  0.0020127 0.0000
  7   -467.6097070958  -0.000012547731 0.00038524  0.00000676  0.0009554 0.0000
  8   -467.6097112661  -0.000004170312 0.00004271  0.00000086  0.0002205 0.0000
  9   -467.6097113210  -0.000000054881 0.00001693  0.00000030  0.0001204 0.0000
 10   -467.6097113396  -0.000000018638 0.00000355  0.00000004  0.0000046 0.0000
 11   -467.6097113397  -0.000000000023 0.00000159  0.00000002  0.0000005 0.0000
 12   -467.6097113397  -0.000000000003 0.00000048  0.00000001  0.0000002 0.0000
                 **** Energy Check signals convergence ****

               *****************************************************
               *                     SUCCESS                       *
               *           SCF CONVERGED AFTER  13 CYCLES          *
               *****************************************************


----------------
TOTAL SCF ENERGY
----------------

Total Energy       :         -467.60971134 Eh          -12724.30714 eV

Components:
Nuclear Repulsion  :           13.35578642 Eh             363.42942 eV
Electronic Energy  :         -480.96549776 Eh          -13087.73656 eV
One Electron Energy:         -673.66129065 Eh          -18331.25566 eV
Two Electron Energy:          192.69579289 Eh            5243.51910 eV

Virial components:
Potential Energy   :         -934.78874453 Eh          -25436.89493 eV
Kinetic Energy     :          467.17903319 Eh           12712.58779 eV
Virial Ratio       :            2.00092187


DFT components:
N(Alpha)           :       10.000012493934 electrons
N(Beta)            :       10.000012493934 electrons
N(Total)           :       20.000024987869 electrons
E(X)               :      -29.240562822251 Eh       
E(C)               :       -0.728700085047 Eh       
E(XC)              :      -29.969262907297 Eh       
DFET-embed. en.    :        0.000000000000 Eh       

---------------
SCF CONVERGENCE
---------------

  Last Energy change         ...    1.3074e-12  Tolerance :   1.0000e-09
  Last MAX-Density change    ...    3.2403e-07  Tolerance :   1.0000e-08
  Last RMS-Density change    ...    4.4987e-09  Tolerance :   1.0000e-09
  Last DIIS Error            ...    8.9404e-09  Tolerance :   1.0000e-08

             **** THE GBW FILE WAS UPDATED (licl_pbe_+0001_z.gbw) ****
             **** DENSITY FILE WAS UPDATED (licl_pbe_+0001_z.scfp.tmp) ****
             **** ENERGY FILE WAS UPDATED (licl_pbe_+0001_z.en.tmp) ****
----------------------
UHF SPIN CONTAMINATION
----------------------

Warning: in a DFT calculation there is little theoretical justification to 
         calculate <S**2> as in Hartree-Fock theory. We will do it anyways
         but you should keep in mind that the values have only limited relevance

Expectation value of <S**2>     :    -0.000000
Ideal value S*(S+1) for S=0.0   :     0.000000
Deviation                       :    -0.000000

----------------
ORBITAL ENERGIES
----------------
                 SPIN UP ORBITALS
  NO   OCC          E(Eh)            E(eV) 
   0   1.0000    -100.553564     -2736.2016 
   1   1.0000      -9.078800      -247.0467 
   2   1.0000      -6.894998      -187.6224 
   3   1.0000      -6.894410      -187.6064 
   4   1.0000      -6.894410      -187.6064 
   5   1.0000      -1.898971       -51.6736 
   6   1.0000      -0.643517       -17.5110 
   7   1.0000      -0.237373        -6.4592 
   8   1.0000      -0.216019        -5.8782 
   9   1.0000      -0.216019        -5.8782 
  10   0.0000      -0.070933        -1.9302 
  11   0.0000      -0.011898        -0.3238 
  12   0.0000      -0.011898        -0.3238 
  13   0.0000      -0.007928        -0.2157 
  14   0.0000       0.009300         0.2531 
  15   0.0000       0.017233         0.4689 
  16   0.0000       0.017233         0.4689 
  17   0.0000       0.032027         0.8715 
  18   0.0000       0.037140         1.0106 
  19   0.0000       0.044721         1.2169 
  20   0.0000       0.044721         1.2169 
  21   0.0000       0.049117         1.3365 
  22   0.0000       0.050198         1.3659 
  23   0.0000       0.050198         1.3659 
  24   0.0000       0.066190         1.8011 
  25   0.0000       0.066190         1.8011 
  26   0.0000       0.079879         2.1736 
  27   0.0000       0.095989         2.6120 
  28   0.0000       0.095989         2.6120 
  29   0.0000       0.100435         2.7330 
  30   0.0000       0.100435         2.7330 
  31   0.0000       0.101029         2.7491 
  32   0.0000       0.101029         2.7491 
  33   0.0000       0.107376         2.9219 
  34   0.0000       0.121525         3.3069 
  35   0.0000       0.138119         3.7584 
  36   0.0000       0.138119         3.7584 
  37   0.0000       0.150897         4.1061 
  38   0.0000       0.157952         4.2981 
  39   0.0000       0.157952         4.2981 
  40   0.0000       0.160061         4.3555 
  41   0.0000       0.163361         4.4453 
  42   0.0000       0.163361         4.4453 
  43   0.0000       0.163444         4.4475 
  44   0.0000       0.163444         4.4475 
  45   0.0000       0.166245         4.5237 
  46   0.0000       0.166245         4.5237 
  47   0.0000       0.181199         4.9307 
  48   0.0000       0.181199         4.9307 
  49   0.0000       0.184351         5.0164 
  50   0.0000       0.184351         5.0164 
  51   0.0000       0.187257         5.0955 
  52   0.0000       0.220156         5.9907 
  53   0.0000       0.258418         7.0319 
  54   0.0000       0.258418         7.0319 
  55   0.0000       0.277619         7.5544 
  56   0.0000       0.305208         8.3051 
  57   0.0000       0.305208         8.3051 
  58   0.0000       0.314437         8.5563 
  59   0.0000       0.314437         8.5563 
  60   0.0000       0.325550         8.8587 
  61   0.0000       0.336748         9.1634 
  62   0.0000       0.386719        10.5231 
  63   0.0000       0.386719        10.5231 
  64   0.0000       0.394700        10.7403 
  65   0.0000       0.394700        10.7403 
  66   0.0000       0.400836        10.9073 
  67   0.0000       0.400836        10.9073 
  68   0.0000       0.419437        11.4135 
  69   0.0000       0.421093        11.4585 
  70   0.0000       0.421093        11.4585 
  71   0.0000       0.427338        11.6285 
  72   0.0000       0.427338        11.6285 
  73   0.0000       0.467901        12.7322 
  74   0.0000       0.524635        14.2760 
  75   0.0000       0.524635        14.2760 
  76   0.0000       0.540779        14.7153 
  77   0.0000       0.540779        14.7153 
  78   0.0000       0.568194        15.4614 
  79   0.0000       0.573493        15.6055 
  80   0.0000       0.573493        15.6055 
  81   0.0000       0.619968        16.8702 
  82   0.0000       0.619968        16.8702 
  83   0.0000       0.626487        17.0476 
  84   0.0000       0.629198        17.1213 
  85   0.0000       0.629198        17.1213 
  86   0.0000       0.681190        18.5361 
  87   0.0000       0.747712        20.3463 
  88   0.0000       0.747712        20.3463 
  89   0.0000       0.758507        20.6400 
  90   0.0000       0.767762        20.8919 
  91   0.0000       0.767762        20.8919 
  92   0.0000       0.809200        22.0195 
  93   0.0000       0.809200        22.0195 
  94   0.0000       0.814073        22.1520 
  95   0.0000       0.814073        22.1520 
  96   0.0000       0.840962        22.8837 
  97   0.0000       0.841039        22.8858 
  98   0.0000       0.841039        22.8858 
  99   0.0000       0.851974        23.1834 
 100   0.0000       0.851974        23.1834 
 101   0.0000       0.905177        24.6311 
 102   0.0000       0.905177        24.6311 
 103   0.0000       0.911596        24.8058 
 104   0.0000       0.943141        25.6642 
 105   0.0000       0.943141        25.6642 
 106   0.0000       0.968925        26.3658 
 107   0.0000       0.968925        26.3658 
 108   0.0000       0.987235        26.8640 
 109   0.0000       0.987235        26.8640 
 110   0.0000       1.018601        27.7176 
 111   0.0000       1.065785        29.0015 
 112   0.0000       1.065785        29.0015 
 113   0.0000       1.108052        30.1516 
 114   0.0000       1.108052        30.1516 
 115   0.0000       1.132494        30.8167 
 116   0.0000       1.132494        30.8167 
 117   0.0000       1.147097        31.2141 
 118   0.0000       1.280081        34.8328 
 119   0.0000       1.349414        36.7194 
 120   0.0000       1.349414        36.7194 
 121   0.0000       1.452725        39.5306 
 122   0.0000       1.452725        39.5306 
 123   0.0000       1.518030        41.3077 
 124   0.0000       1.528673        41.5973 
 125   0.0000       1.528673        41.5973 
 126   0.0000       1.761674        47.9376 
 127   0.0000       1.761674        47.9376 
 128   0.0000       1.833558        49.8937 
 129   0.0000       1.874755        51.0147 
 130   0.0000       1.874755        51.0147 
 131   0.0000       1.879315        51.1388 
 132   0.0000       1.970830        53.6290 
 133   0.0000       2.016867        54.8817 
 134   0.0000       2.209330        60.1189 
 135   0.0000       2.209331        60.1190 
 136   0.0000       2.296695        62.4962 
 137   0.0000       2.296695        62.4962 
 138   0.0000       2.330395        63.4133 
 139   0.0000       2.330395        63.4133 
 140   0.0000       2.401301        65.3427 
 141   0.0000       2.401301        65.3427 
 142   0.0000       2.497648        67.9645 
 143   0.0000       2.505561        68.1798 
 144   0.0000       2.505561        68.1798 
 145   0.0000       2.678587        72.8881 
 146   0.0000       2.678587        72.8881 
 147   0.0000       2.693130        73.2838 
 148   0.0000       2.693132        73.2838 
 149   0.0000       2.715988        73.9058 
 150   0.0000       2.715988        73.9058 
 151   0.0000       2.797776        76.1314 
 152   0.0000       2.922172        79.5163 
 153   0.0000       2.922179        79.5165 
 154   0.0000       2.988331        81.3166 
 155   0.0000       2.988331        81.3166 
 156   0.0000       3.026145        82.3456 
 157   0.0000       3.026145        82.3456 
 158   0.0000       3.144544        85.5674 
 159   0.0000       3.345684        91.0407 
 160   0.0000       3.345686        91.0407 
 161   0.0000       3.580679        97.4352 
 162   0.0000       3.580679        97.4352 
 163   0.0000       3.591214        97.7219 
 164   0.0000       3.746403       101.9448 
 165   0.0000       3.746404       101.9448 
 166   0.0000       3.764337       102.4328 
 167   0.0000       3.764337       102.4328 
 168   0.0000       4.065239       110.6208 
 169   0.0000       4.065239       110.6208 
 170   0.0000       4.089118       111.2706 
 171   0.0000       4.214594       114.6849 
 172   0.0000       4.839004       131.6760 
 173   0.0000       4.839004       131.6760 
 174   0.0000       5.006729       136.2400 
 175   0.0000       5.233949       142.4230 
 176   0.0000       5.233950       142.4230 
 177   0.0000       5.436014       147.9215 
 178   0.0000       5.436014       147.9215 
 179   0.0000       5.756250       156.6355 
 180   0.0000       5.756265       156.6359 
 181   0.0000       5.760961       156.7637 
 182   0.0000       5.760961       156.7637 
 183   0.0000       5.773200       157.0968 
 184   0.0000       5.773200       157.0968 
 185   0.0000       5.827246       158.5674 
 186   0.0000       5.827260       158.5678 
 187   0.0000       5.872838       159.8080 
 188   0.0000       5.872838       159.8080 
 189   0.0000       5.912570       160.8892 
 190   0.0000       5.917670       161.0280 
 191   0.0000       5.917678       161.0282 
 192   0.0000       6.052449       164.6955 
 193   0.0000       6.302576       171.5018 
 194   0.0000       6.302576       171.5018 
 195   0.0000       6.342470       172.5874 
 196   0.0000       9.184319       249.9180 
 197   0.0000       9.184576       249.9250 
 198   0.0000       9.190300       250.0808 
 199   0.0000       9.190300       250.0808 
 200   0.0000       9.289402       252.7775 
 201   0.0000       9.289407       252.7776 
 202   0.0000       9.325478       253.7591 
 203   0.0000       9.558293       260.0944 
 204   0.0000       9.558293       260.0944 
 205   0.0000      10.665231       290.2157 
 206   0.0000      12.927379       351.7719 
 207   0.0000      12.927379       351.7719 
 208   0.0000      12.974290       353.0484 
 209   0.0000      12.974379       353.0508 
 210   0.0000      13.084018       356.0342 
 211   0.0000      13.084018       356.0342 
 212   0.0000      13.168060       358.3211 
 213   0.0000      17.686084       481.2628 
 214   0.0000      17.686164       481.2650 
 215   0.0000      17.781832       483.8683 
 216   0.0000      17.781832       483.8683 
 217   0.0000      17.991645       489.5775 
 218   0.0000      38.586793      1050.0000 
 219   0.0000      65.884632      1792.8120 
 220   0.0000      65.884671      1792.8130 
 221   0.0000      65.943092      1794.4028 
 222   0.0000      65.943092      1794.4028 
 223   0.0000      66.075627      1798.0092 

                 SPIN DOWN ORBITALS
  NO   OCC          E(Eh)            E(eV) 
   0   1.0000    -100.553564     -2736.2016 
   1   1.0000      -9.078800      -247.0467 
   2   1.0000      -6.894998      -187.6224 
   3   1.0000      -6.894410      -187.6064 
   4   1.0000      -6.894410      -187.6064 
   5   1.0000      -1.898971       -51.6736 
   6   1.0000      -0.643517       -17.5110 
   7   1.0000      -0.237373        -6.4592 
   8   1.0000      -0.216019        -5.8782 
   9   1.0000      -0.216019        -5.8782 
  10   0.0000      -0.070933        -1.9302 
  11   0.0000      -0.011898        -0.3238 
  12   0.0000      -0.011898        -0.3238 
  13   0.0000      -0.007928        -0.2157 
  14   0.0000       0.009300         0.2531 
  15   0.0000       0.017233         0.4689 
  16   0.0000       0.017233         0.4689 
  17   0.0000       0.032027         0.8715 
  18   0.0000       0.037140         1.0106 
  19   0.0000       0.044721         1.2169 
  20   0.0000       0.044721         1.2169 
  21   0.0000       0.049117         1.3365 
  22   0.0000       0.050198         1.3659 
  23   0.0000       0.050198         1.3659 
  24   0.0000       0.066190         1.8011 
  25   0.0000       0.066190         1.8011 
  26   0.0000       0.079879         2.1736 
  27   0.0000       0.095989         2.6120 
  28   0.0000       0.095989         2.6120 
  29   0.0000       0.100435         2.7330 
  30   0.0000       0.100435         2.7330 
  31   0.0000       0.101029         2.7491 
  32   0.0000       0.101029         2.7491 
  33   0.0000       0.107376         2.9219 
  34   0.0000       0.121525         3.3069 
  35   0.0000       0.138119         3.7584 
  36   0.0000       0.138119         3.7584 
  37   0.0000       0.150897         4.1061 
  38   0.0000       0.157952         4.2981 
  39   0.0000       0.157952         4.2981 
  40   0.0000       0.160061         4.3555 
  41   0.0000       0.163361         4.4453 
  42   0.0000       0.163361         4.4453 
  43   0.0000       0.163444         4.4475 
  44   0.0000       0.163444         4.4475 
  45   0.0000       0.166245         4.5237 
  46   0.0000       0.166245         4.5237 
  47   0.0000       0.181199         4.9307 
  48   0.0000       0.181199         4.9307 
  49   0.0000       0.184351         5.0164 
  50   0.0000       0.184351         5.0164 
  51   0.0000       0.187257         5.0955 
  52   0.0000       0.220156         5.9907 
  53   0.0000       0.258418         7.0319 
  54   0.0000       0.258418         7.0319 
  55   0.0000       0.277619         7.5544 
  56   0.0000       0.305208         8.3051 
  57   0.0000       0.305208         8.3051 
  58   0.0000       0.314437         8.5563 
  59   0.0000       0.314437         8.5563 
  60   0.0000       0.325550         8.8587 
  61   0.0000       0.336748         9.1634 
  62   0.0000       0.386719        10.5231 
  63   0.0000       0.386719        10.5231 
  64   0.0000       0.394700        10.7403 
  65   0.0000       0.394700        10.7403 
  66   0.0000       0.400836        10.9073 
  67   0.0000       0.400836        10.9073 
  68   0.0000       0.419437        11.4135 
  69   0.0000       0.421093        11.4585 
  70   0.0000       0.421093        11.4585 
  71   0.0000       0.427338        11.6285 
  72   0.0000       0.427338        11.6285 
  73   0.0000       0.467901        12.7322 
  74   0.0000       0.524635        14.2760 
  75   0.0000       0.524635        14.2760 
  76   0.0000       0.540779        14.7153 
  77   0.0000       0.540779        14.7153 
  78   0.0000       0.568194        15.4614 
  79   0.0000       0.573493        15.6055 
  80   0.0000       0.573493        15.6055 
  81   0.0000       0.619968        16.8702 
  82   0.0000       0.619968        16.8702 
  83   0.0000       0.626487        17.0476 
  84   0.0000       0.629198        17.1213 
  85   0.0000       0.629198        17.1213 
  86   0.0000       0.681190        18.5361 
  87   0.0000       0.747712        20.3463 
  88   0.0000       0.747712        20.3463 
  89   0.0000       0.758507        20.6400 
  90   0.0000       0.767762        20.8919 
  91   0.0000       0.767762        20.8919 
  92   0.0000       0.809200        22.0195 
  93   0.0000       0.809200        22.0195 
  94   0.0000       0.814073        22.1520 
  95   0.0000       0.814073        22.1520 
  96   0.0000       0.840962        22.8837 
  97   0.0000       0.841039        22.8858 
  98   0.0000       0.841039        22.8858 
  99   0.0000       0.851974        23.1834 
 100   0.0000       0.851974        23.1834 
 101   0.0000       0.905177        24.6311 
 102   0.0000       0.905177        24.6311 
 103   0.0000       0.911596        24.8058 
 104   0.0000       0.943141        25.6642 
 105   0.0000       0.943141        25.6642 
 106   0.0000       0.968925        26.3658 
 107   0.0000       0.968925        26.3658 
 108   0.0000       0.987235        26.8640 
 109   0.0000       0.987235        26.8640 
 110   0.0000       1.018601        27.7176 
 111   0.0000       1.065785        29.0015 
 112   0.0000       1.065785        29.0015 
 113   0.0000       1.108052        30.1516 
 114   0.0000       1.108052        30.1516 
 115   0.0000       1.132494        30.8167 
 116   0.0000       1.132494        30.8167 
 117   0.0000       1.147097        31.2141 
 118   0.0000       1.280081        34.8328 
 119   0.0000       1.349414        36.7194 
 120   0.0000       1.349414        36.7194 
 121   0.0000       1.452725        39.5306 
 122   0.0000       1.452725        39.5306 
 123   0.0000       1.518030        41.3077 
 124   0.0000       1.528673        41.5973 
 125   0.0000       1.528673        41.5973 
 126   0.0000       1.761674        47.9376 
 127   0.0000       1.761674        47.9376 
 128   0.0000       1.833558        49.8937 
 129   0.0000       1.874755        51.0147 
 130   0.0000       1.874755        51.0147 
 131   0.0000       1.879315        51.1388 
 132   0.0000       1.970830        53.6290 
 133   0.0000       2.016867        54.8817 
 134   0.0000       2.209330        60.1189 
 135   0.0000       2.209331        60.1190 
 136   0.0000       2.296695        62.4962 
 137   0.0000       2.296695        62.4962 
 138   0.0000       2.330395        63.4133 
 139   0.0000       2.330395        63.4133 
 140   0.0000       2.401301        65.3427 
 141   0.0000       2.401301        65.3427 
 142   0.0000       2.497648        67.9645 
 143   0.0000       2.505561        68.1798 
 144   0.0000       2.505561        68.1798 
 145   0.0000       2.678587        72.8881 
 146   0.0000       2.678587        72.8881 
 147   0.0000       2.693130        73.2838 
 148   0.0000       2.693132        73.2838 
 149   0.0000       2.715988        73.9058 
 150   0.0000       2.715988        73.9058 
 151   0.0000       2.797776        76.1314 
 152   0.0000       2.922172        79.5163 
 153   0.0000       2.922179        79.5165 
 154   0.0000       2.988331        81.3166 
 155   0.0000       2.988331        81.3166 
 156   0.0000       3.026145        82.3456 
 157   0.0000       3.026145        82.3456 
 158   0.0000       3.144544        85.5674 
 159   0.0000       3.345684        91.0407 
 160   0.0000       3.345686        91.0407 
 161   0.0000       3.580679        97.4352 
 162   0.0000       3.580679        97.4352 
 163   0.0000       3.591214        97.7219 
 164   0.0000       3.746403       101.9448 
 165   0.0000       3.746404       101.9448 
 166   0.0000       3.764337       102.4328 
 167   0.0000       3.764337       102.4328 
 168   0.0000       4.065239       110.6208 
 169   0.0000       4.065239       110.6208 
 170   0.0000       4.089118       111.2706 
 171   0.0000       4.214594       114.6849 
 172   0.0000       4.839004       131.6760 
 173   0.0000       4.839004       131.6760 
 174   0.0000       5.006729       136.2400 
 175   0.0000       5.233949       142.4230 
 176   0.0000       5.233950       142.4230 
 177   0.0000       5.436014       147.9215 
 178   0.0000       5.436014       147.9215 
 179   0.0000       5.756250       156.6355 
 180   0.0000       5.756265       156.6359 
 181   0.0000       5.760961       156.7637 
 182   0.0000       5.760961       156.7637 
 183   0.0000       5.773200       157.0968 
 184   0.0000       5.773200       157.0968 
 185   0.0000       5.827246       158.5674 
 186   0.0000       5.827260       158.5678 
 187   0.0000       5.872838       159.8080 
 188   0.0000       5.872838       159.8080 
 189   0.0000       5.912570       160.8892 
 190   0.0000       5.917670       161.0280 
 191   0.0000       5.917678       161.0282 
 192   0.0000       6.052449       164.6955 
 193   0.0000       6.302576       171.5018 
 194   0.0000       6.302576       171.5018 
 195   0.0000       6.342470       172.5874 
 196   0.0000       9.184319       249.9180 
 197   0.0000       9.184576       249.9250 
 198   0.0000       9.190300       250.0808 
 199   0.0000       9.190300       250.0808 
 200   0.0000       9.289402       252.7775 
 201   0.0000       9.289407       252.7776 
 202   0.0000       9.325478       253.7591 
 203   0.0000       9.558293       260.0944 
 204   0.0000       9.558293       260.0944 
 205   0.0000      10.665231       290.2157 
 206   0.0000      12.927379       351.7719 
 207   0.0000      12.927379       351.7719 
 208   0.0000      12.974290       353.0484 
 209   0.0000      12.974379       353.0508 
 210   0.0000      13.084018       356.0342 
 211   0.0000      13.084018       356.0342 
 212   0.0000      13.168060       358.3211 
 213   0.0000      17.686084       481.2628 
 214   0.0000      17.686164       481.2650 
 215   0.0000      17.781832       483.8683 
 216   0.0000      17.781832       483.8683 
 217   0.0000      17.991645       489.5775 
 218   0.0000      38.586793      1050.0000 
 219   0.0000      65.884632      1792.8120 
 220   0.0000      65.884671      1792.8130 
 221   0.0000      65.943092      1794.4028 
 222   0.0000      65.943092      1794.4028 
 223   0.0000      66.075627      1798.0092 

                    ********************************
                    * MULLIKEN POPULATION ANALYSIS *
                    ********************************

--------------------------------------------
MULLIKEN ATOMIC CHARGES AND SPIN POPULATIONS
--------------------------------------------
   0 Li:    0.601320   -0.000000
   1 Cl:   -0.601320    0.000000
Sum of atomic charges         :   -0.0000000
Sum of atomic spin populations:   -0.0000000

-----------------------------------------------------
MULLIKEN REDUCED ORBITAL CHARGES AND SPIN POPULATIONS
-----------------------------------------------------
CHARGE
  0 Lis       :     2.087772  s :     2.087772
      pz      :     0.119359  p :     0.252048
      px      :     0.066344
      py      :     0.066344
      dz2     :     0.011559  d :     0.050449
      dxz     :     0.019445
      dyz     :     0.019445
      dx2y2   :     0.000000
      dxy     :     0.000000
      f0      :     0.001372  f :     0.008538
      f+1     :     0.003583
      f-1     :     0.003583
      f+2     :     0.000000
      f-2     :    -0.000000
      f+3     :     0.000000
      f-3     :     0.000000
      g0      :     0.000038  g :    -0.000128
      g+1     :    -0.000083
      g-1     :    -0.000083
      g+2     :     0.000000
      g-2     :     0.000000
      g+3     :     0.000000
      g-3     :     0.000000
      g+4     :     0.000000
      g-4     :     0.000000
  1 Cls       :     5.963396  s :     5.963396
      pz      :     3.808162  p :    11.623207
      px      :     3.907522
      py      :     3.907522
      dz2     :     0.004214  d :     0.010272
      dxz     :     0.003029
      dyz     :     0.003029
      dx2y2   :     0.000000
      dxy     :     0.000000
      f0      :     0.002439  f :     0.002779
      f+1     :     0.000170
      f-1     :     0.000170
      f+2     :     0.000000
      f-2     :     0.000000
      f+3     :     0.000000
      f-3     :     0.000000
      g0      :     0.001269  g :     0.001254
      g+1     :    -0.000007
      g-1     :    -0.000007
      g+2     :    -0.000000
      g-2     :    -0.000000
      g+3     :     0.000000
      g-3     :     0.000000
      g+4     :     0.000000
      g-4     :     0.000000
      h0      :     0.000417  h :     0.000411
      h+1     :    -0.000003
      h-1     :    -0.000003
      h+2     :    -0.000000
      h-2     :    -0.000000
      h+3     :     0.000000
      h-3     :     0.000000
      h+4     :     0.000000
      h-4     :     0.000000
      h+5     :     0.000000
      h-5     :     0.000000

SPIN
  0 Lis       :    -0.000000  s :    -0.000000
      pz      :    -0.000000  p :    -0.000000
      px      :    -0.000000
      py      :    -0.000000
      dz2     :    -0.000000  d :    -0.000000
      dxz     :    -0.000000
      dyz     :    -0.000000
      dx2y2   :    -0.000000
      dxy     :     0.000000
      f0      :     0.000000  f :     0.000000
      f+1     :     0.000000
      f-1     :     0.000000
      f+2     :    -0.000000
      f-2     :    -0.000000
      f+3     :     0.000000
      f-3     :    -0.000000
      g0      :     0.000000  g :     0.000000
      g+1     :    -0.000000
      g-1     :     0.000000
      g+2     :     0.000000
      g-2     :    -0.000000
      g+3     :    -0.000000
      g-3     :     0.000000
      g+4     :     0.000000
      g-4     :     0.000000
  1 Cls       :     0.000000  s :     0.000000
      pz      :    -0.000000  p :    -0.000000
      px      :    -0.000000
      py      :     0.000000
      dz2     :     0.000000  d :     0.000000
      dxz     :     0.000000
      dyz     :     0.000000
      dx2y2   :    -0.000000
      dxy     :     0.000000
      f0      :     0.000000  f :     0.000000
      f+1     :     0.000000
      f-1     :     0.000000
      f+2     :     0.000000
      f-2     :    -0.000000
      f+3     :     0.000000
      f-3     :     0.000000
      g0      :     0.000000  g :     0.000000
      g+1     :     0.000000
      g-1     :     0.000000
      g+2     :     0.000000
      g-2     :    -0.000000
      g+3     :    -0.000000
      g-3     :     0.000000
      g+4     :    -0.000000
      g-4     :    -0.000000
      h0      :     0.000000  h :     0.000000
      h+1     :    -0.000000
      h-1     :    -0.000000
      h+2     :    -0.000000
      h-2     :     0.000000
      h+3     :    -0.000000
      h-3     :    -0.000000
      h+4     :     0.000000
      h-4     :    -0.000000
      h+5     :    -0.000000
      h-5     :    -0.000000


                     *******************************
                     * LOEWDIN POPULATION ANALYSIS *
                     *******************************

-------------------------------------------
LOEWDIN ATOMIC CHARGES AND SPIN POPULATIONS
-------------------------------------------
   0 Li:   -0.243654   -0.000000
   1 Cl:    0.243654    0.000000

----------------------------------------------------
LOEWDIN REDUCED ORBITAL CHARGES AND SPIN POPULATIONS
----------------------------------------------------
CHARGE
  0 Lis       :     2.093023  s :     2.093023
      pz      :     0.306302  p :     0.518035
      px      :     0.105866
      py      :     0.105866
      dz2     :     0.179827  d :     0.384130
      dxz     :     0.102152
      dyz     :     0.102152
      dx2y2   :     0.000000
      dxy     :     0.000000
      f0      :     0.081892  f :     0.215891
      f+1     :     0.067000
      f-1     :     0.067000
      f+2     :     0.000000
      f-2     :     0.000000
      f+3     :     0.000000
      f-3     :     0.000000
      g0      :     0.013748  g :     0.032575
      g+1     :     0.009413
      g-1     :     0.009413
      g+2     :     0.000000
      g-2     :     0.000000
      g+3     :     0.000000
      g-3     :     0.000000
      g+4     :     0.000000
      g-4     :     0.000000
  1 Cls       :     5.538805  s :     5.538805
      pz      :     3.706064  p :    11.129226
      px      :     3.711581
      py      :     3.711581
      dz2     :     0.021217  d :     0.024942
      dxz     :     0.001863
      dyz     :     0.001863
      dx2y2   :     0.000000
      dxy     :     0.000000
      f0      :     0.018170  f :     0.020137
      f+1     :     0.000983
      f-1     :     0.000983
      f+2     :     0.000000
      f-2     :     0.000000
      f+3     :     0.000000
      f-3     :     0.000000
      g0      :     0.020798  g :     0.022509
      g+1     :     0.000856
      g-1     :     0.000856
      g+2     :     0.000000
      g-2     :     0.000000
      g+3     :     0.000000
      g-3     :     0.000000
      g+4     :     0.000000
      g-4     :     0.000000
      h0      :     0.020154  h :     0.020726
      h+1     :     0.000286
      h-1     :     0.000286
      h+2     :     0.000000
      h-2     :     0.000000
      h+3     :     0.000000
      h-3     :     0.000000
      h+4     :     0.000000
      h-4     :     0.000000
      h+5     :     0.000000
      h-5     :     0.000000

SPIN
  0 Lis       :    -0.000000  s :    -0.000000
      pz      :    -0.000000  p :    -0.000000
      px      :    -0.000000
      py      :    -0.000000
      dz2     :    -0.000000  d :    -0.000000
      dxz     :     0.000000
      dyz     :     0.000000
      dx2y2   :    -0.000000
      dxy     :    -0.000000
      f0      :     0.000000  f :     0.000000
      f+1     :     0.000000
      f-1     :    -0.000000
      f+2     :    -0.000000
      f-2     :    -0.000000
      f+3     :     0.000000
      f-3     :     0.000000
      g0      :     0.000000  g :    -0.000000
      g+1     :    -0.000000
      g-1     :    -0.000000
      g+2     :    -0.000000
      g-2     :     0.000000
      g+3     :    -0.000000
      g-3     :     0.000000
      g+4     :     0.000000
      g-4     :     0.000000
  1 Cls       :     0.000000  s :     0.000000
      pz      :    -0.000000  p :    -0.000000
      px      :    -0.000000
      py      :     0.000000
      dz2     :    -0.000000  d :    -0.000000
      dxz     :    -0.000000
      dyz     :     0.000000
      dx2y2   :     0.000000
      dxy     :    -0.000000
      f0      :     0.000000  f :    -0.000000
      f+1     :     0.000000
      f-1     :    -0.000000
      f+2     :    -0.000000
      f-2     :    -0.000000
      f+3     :     0.000000
      f-3     :     0.000000
      g0      :     0.000000  g :     0.000000
      g+1     :    -0.000000
      g-1     :    -0.000000
      g+2     :    -0.000000
      g-2     :    -0.000000
      g+3     :    -0.000000
      g-3     :     0.000000
      g+4     :    -0.000000
      g-4     :    -0.000000
      h0      :     0.000000  h :     0.000000
      h+1     :    -0.000000
      h-1     :    -0.000000
      h+2     :    -0.000000
      h-2     :    -0.000000
      h+3     :    -0.000000
      h-3     :    -0.000000
      h+4     :     0.000000
      h-4     :    -0.000000
      h+5     :    -0.000000
      h-5     :    -0.000000


                      *****************************
                      * MAYER POPULATION ANALYSIS *
                      *****************************

  NA   - Mulliken gross atomic population
  ZA   - Total nuclear charge
  QA   - Mulliken gross atomic charge
  VA   - Mayer's total valence
  BVA  - Mayer's bonded valence
  FA   - Mayer's free valence

  ATOM       NA         ZA         QA         VA         BVA        FA
  0 Li     2.3987     3.0000     0.6013     0.7174     0.7174    -0.0000
  1 Cl    17.6013    17.0000    -0.6013     0.7174     0.7174    -0.0000

  Mayer bond orders larger than 0.1
B(  0-Li,  1-Cl) :   0.7174 

-------
TIMINGS
-------

Total SCF time: 0 days 0 hours 2 min 49 sec 

Total time                  ....     169.216 sec
Sum of individual times     ....     168.565 sec  ( 99.6%)

Fock matrix formation       ....     167.288 sec  ( 98.9%)
  XC integration            ....       5.399 sec  (  3.2% of F)
    Basis function eval.    ....       0.424 sec  (  7.9% of XC)
    Density eval.           ....       0.809 sec  ( 15.0% of XC)
    XC-Functional eval.     ....       0.119 sec  (  2.2% of XC)
    XC-Potential eval.      ....       2.469 sec  ( 45.7% of XC)
Diagonalization             ....       0.339 sec  (  0.2%)
Density matrix formation    ....       0.007 sec  (  0.0%)
Population analysis         ....       0.170 sec  (  0.1%)
Initial guess               ....       0.268 sec  (  0.2%)
Orbital Transformation      ....       0.000 sec  (  0.0%)
Orbital Orthonormalization  ....       0.000 sec  (  0.0%)
DIIS solution               ....       0.234 sec  (  0.1%)
Grid generation             ....       0.259 sec  (  0.2%)

-------------------------   --------------------
FINAL SINGLE POINT ENERGY      -467.609711339674
-------------------------   --------------------


                            ***************************************
                            *     ORCA property calculations      *
                            ***************************************

                                    ---------------------
                                    Active property flags
                                    ---------------------
   (+) Dipole Moment


------------------------------------------------------------------------------
                       ORCA ELECTRIC PROPERTIES CALCULATION
------------------------------------------------------------------------------

Dipole Moment Calculation                       ... on
Quadrupole Moment Calculation                   ... off
Polarizability Calculation                      ... off
GBWName                                         ... licl_pbe_+0001_z.gbw
Electron density file                           ... licl_pbe_+0001_z.scfp.tmp
The origin for moment calculation is the CENTER OF MASS  = ( 0.000000,  0.000000  3.193370)

-------------
DIPOLE MOMENT
-------------
                                X             Y             Z
Electronic contribution:     -0.00000       0.00000      -3.70983
Nuclear contribution   :      0.00000       0.00000       1.04827
                        -----------------------------------------
Total Dipole Moment    :     -0.00000       0.00000      -2.66155
                        -----------------------------------------
Magnitude (a.u.)       :      2.66155
Magnitude (Debye)      :      6.76513



--------------------
Rotational spectrum 
--------------------
 
Rotational constants in cm-1:     0.000000     0.711250     0.711250 
Rotational constants in MHz :     0.000000 21322.753260 21322.753260 

 Dipole components along the rotational axes: 
x,y,z [a.u.] :    -2.661554     0.000000    -0.000000 
x,y,z [Debye]:    -6.765134     0.000000    -0.000000 

 

Timings for individual modules:

Sum of individual times         ...      170.852 sec (=   2.848 min)
GTO integral calculation        ...        1.253 sec (=   0.021 min)   0.7 %
SCF iterations                  ...      169.600 sec (=   2.827 min)  99.3 %
                             ****ORCA TERMINATED NORMALLY****
TOTAL RUN TIME: 0 days 0 hours 2 minutes 51 seconds 760 msec
