
                                 *****************
                                 * O   R   C   A *
                                 *****************

           --- An Ab Initio, DFT and Semiempirical electronic structure package ---

                  #######################################################
                  #                        -***-                        #
                  #          Department of theory and spectroscopy      #
                  #               Directorship: Frank Neese             #
                  #        Max Planck Institute fuer Kohlenforschung    #
                  #                Kaiser Wilhelm Platz 1               #
                  #                 D-45470 Muelheim/Ruhr               #
                  #                      Germany                        #
                  #                                                     #
                  #                  All rights reserved                #
                  #                        -***-                        #
                  #######################################################


                         Program Version 4.1.2  - RELEASE  -


 With contributions from (in alphabetic order):
   Daniel Aravena         : Magnetic Properties
   Michael Atanasov       : Ab Initio Ligand Field Theory
   Alexander A. Auer      : GIAO ZORA
   Ute Becker             : Parallelization
   Giovanni Bistoni       : ED, Open-shell LED
   Martin Brehm           : Molecular dynamics
   Dmytro Bykov           : SCF Hessian
   Vijay G. Chilkuri      : MRCI spin determinant printing
   Dipayan Datta          : RHF DLPNO-CCSD density
   Achintya Kumar Dutta   : EOM-CC, STEOM-CC
   Dmitry Ganyushin       : Spin-Orbit,Spin-Spin,Magnetic field MRCI
   Miquel Garcia          : C-PCM Hessian
   Yang Guo               : DLPNO-NEVPT2, CIM, IAO-localization
   Andreas Hansen         : Spin unrestricted coupled pair/coupled cluster methods
   Benjamin Helmich-Paris : CASSCF linear response (MC-RPA)
   Lee Huntington         : MR-EOM, pCC
   Robert Izsak           : Overlap fitted RIJCOSX, COSX-SCS-MP3, EOM
   Christian Kollmar      : KDIIS, OOCD, Brueckner-CCSD(T), CCSD density
   Simone Kossmann        : Meta GGA functionals, TD-DFT gradient, OOMP2, MP2 Hessian
   Martin Krupicka        : AUTO-CI
   Lucas Lang             : DCDCAS
   Dagmar Lenk            : GEPOL surface, SMD
   Dimitrios Liakos       : Extrapolation schemes; parallel MDCI
   Dimitrios Manganas     : ROCIS; embedding schemes
   Dimitrios Pantazis     : SARC Basis sets
   Taras Petrenko         : DFT Hessian,TD-DFT gradient, ASA, ECA, R-Raman, ABS, FL, XAS/XES, NRVS
   Peter Pinski           : DLPNO-MP2, DLPNO-MP2 Gradient
   Christoph Reimann      : Effective Core Potentials
   Marius Retegan         : Local ZFS, SOC
   Christoph Riplinger    : Optimizer, TS searches, QM/MM, DLPNO-CCSD(T), (RO)-DLPNO pert. Triples
   Tobias Risthaus        : Range-separated hybrids, TD-DFT gradient, RPA, STAB
   Michael Roemelt        : Restricted open shell CIS
   Masaaki Saitow         : Open-shell DLPNO
   Barbara Sandhoefer     : DKH picture change effects
   Avijit Sen             : IP-ROCIS
   Kantharuban Sivalingam : CASSCF convergence, NEVPT2, FIC-MRCI
   Bernardo de Souza      : ESD, SOC TD-DFT
   Georgi Stoychev        : AutoAux, RI-MP2 NMR
   Willem Van den Heuvel  : Paramagnetic NMR
   Boris Wezisla          : Elementary symmetry handling
   Frank Wennmohs         : Technical directorship


 We gratefully acknowledge several colleagues who have allowed us to
 interface, adapt or use parts of their codes:
   Stefan Grimme, W. Hujo, H. Kruse,             : VdW corrections, initial TS optimization,
                  C. Bannwarth                     DFT functionals, gCP, sTDA/sTD-DF
   Ed Valeev                                     : LibInt (2-el integral package), F12 methods
   Garnet Chan, S. Sharma, J. Yang, R. Olivares  : DMRG
   Ulf Ekstrom                                   : XCFun DFT Library
   Mihaly Kallay                                 : mrcc  (arbitrary order and MRCC methods)
   Andreas Klamt, Michael Diedenhofen            : otool_cosmo (COSMO solvation model)
   Jiri Pittner, Ondrej Demel                    : Mk-CCSD
   Frank Weinhold                                : gennbo (NPA and NBO analysis)
   Christopher J. Cramer and Donald G. Truhlar   : smd solvation model
   Lars Goerigk                                  : TD-DFT with DH, B97 family of functionals
   V. Asgeirsson, H. Jonsson                     : NEB implementation
   FAccTs GmbH                                   : IRC, NEB, NEB-TS, Multilevel


 Your calculation uses the libint2 library for the computation of 2-el integrals
 For citations please refer to: http://libint.valeyev.net

 This ORCA versions uses:
   CBLAS   interface :  Fast vector & matrix operations
   LAPACKE interface :  Fast linear algebra routines
   SCALAPACK package :  Parallel linear algebra routines


----- Orbital basis set information -----
Your calculation utilizes the basis: aug-pc-4
   H, C-F              : F. Jensen, J. Chem. Phys. 115, 9113 (2001).
                         F. Jensen, J. Chem. Phys. 116, 7372 (2002).
                         F. Jensen, J. Chem. Phys. 117, 9234 (2002).
   Si-Cl               : F. Jensen, T. Helgaker, J. Chem. Phys. 121, 3463 (2004).
   He-B, Ne-Mg, Al, Ar : F. Jensen, J. Phys. Chem. A 111, 11198 (2007).
   K, Ca, Ga-Kr        : F. Jensen, J. Chem. Phys. 136, 094110 (2012).
   Sc-Zn               : F. Jensen, J. Chem. Phys. 138, 014107 (2013).

================================================================================
                                        WARNINGS
                       Please study these warnings very carefully!
================================================================================


INFO   : the flag for use of LIBINT has been found!

================================================================================
                                       INPUT FILE
================================================================================
NAME = licn_pbe_+0001_y.inp
|  1> !uks pbe nori aug-pc-4 grid5 nofinalgrid verytightscf
|  2> 
|  3> %maxcore 6000
|  4> 
|  5> %pal nprocs 4 end
|  6> 
|  7> %scf
|  8> 	efield 0.0, 0.001, 0.0
|  9> 	maxiter 200
| 10> end
| 11> 
| 12> * xyz 0 1
| 13> Li 1.4157454937 -0.6164252897 0.0000000000
| 14> C -0.6780148225 -0.3855159545 0.0000000000
| 15> N -0.0211306712 0.6069412443 0.0000000000
| 16> *
| 17> 
| 18>                          ****END OF INPUT****
================================================================================

                       ****************************
                       * Single Point Calculation *
                       ****************************

---------------------------------
CARTESIAN COORDINATES (ANGSTROEM)
---------------------------------
  Li     1.415745   -0.616425    0.000000
  C     -0.678015   -0.385516    0.000000
  N     -0.021131    0.606941    0.000000

----------------------------
CARTESIAN COORDINATES (A.U.)
----------------------------
  NO LB      ZA    FRAG     MASS         X           Y           Z
   0 Li    3.0000    0     6.941    2.675371   -1.164875    0.000000
   1 C     6.0000    0    12.011   -1.281262   -0.728520    0.000000
   2 N     7.0000    0    14.007   -0.039931    1.146953    0.000000

--------------------------------
INTERNAL COORDINATES (ANGSTROEM)
--------------------------------
 Li     0   0   0     0.000000000000     0.00000000     0.00000000
 C      1   0   0     2.106454695164     0.00000000     0.00000000
 N      2   1   0     1.190154645279    62.79376329     0.00000000

---------------------------
INTERNAL COORDINATES (A.U.)
---------------------------
 Li     0   0   0     0.000000000000     0.00000000     0.00000000
 C      1   0   0     3.980622487372     0.00000000     0.00000000
 N      2   1   0     2.249066336591    62.79376329     0.00000000

---------------------
BASIS SET INFORMATION
---------------------
There are 3 groups of distinct atoms

 Group   1 Type Li  : 31s9p4d3f2g contracted to 9s5p4d3f2g pattern {12121111111/51111/1111/111/11}
 Group   2 Type C   : 28s12p7d4f3g2h contracted to 9s8p7d4f3g2h pattern {11101111111/51111111/1111111/1111/111/11}
 Group   3 Type N   : 27s12p7d4f3g2h contracted to 9s8p7d4f3g2h pattern {1191111111/51111111/1111111/1111/111/11}

Atom   0Li   basis set group =>   1
Atom   1C    basis set group =>   2
Atom   2N    basis set group =>   3


           ************************************************************
           *        Program running with 4 parallel MPI-processes     *
           *              working on a common directory               *
           ************************************************************
------------------------------------------------------------------------------
                           ORCA GTO INTEGRAL CALCULATION
------------------------------------------------------------------------------

                         BASIS SET STATISTICS AND STARTUP INFO

 # of primitive gaussian shells          ...  160
 # of primitive gaussian functions       ...  468
 # of contracted shells                  ...   89
 # of contracted basis functions         ...  373
 Highest angular momentum                ...    5
 Maximum contraction depth               ...   12
 Integral package used                   ... LIBINT
 Integral threshhold            Thresh   ...  1.000e-12
 Primitive cut-off              TCut     ...  1.000e-14


------------------------------ INTEGRAL EVALUATION ----------------------------


 * One electron integrals 
 Pre-screening matrix                    ... done
 Shell pair data                         ... done (   0.002 sec)


An Electric Field will be added: 0.000e+00 1.000e-03 0.000e+00 au

  ... done adding electric field perturbation



           ************************************************************
           *        Program running with 4 parallel MPI-processes     *
           *              working on a common directory               *
           ************************************************************
-------------------------------------------------------------------------------
                                 ORCA SCF
-------------------------------------------------------------------------------

------------
SCF SETTINGS
------------
Hamiltonian:
 Density Functional     Method          .... DFT(GTOs)
 Exchange Functional    Exchange        .... PBE
   PBE kappa parameter   XKappa         ....  0.804000
   PBE mue parameter    XMuePBE         ....  0.219520
 Correlation Functional Correlation     .... PBE
   PBE beta parameter  CBetaPBE         ....  0.066725
 LDA part of GGA corr.  LDAOpt          .... PW91-LDA
 Gradients option       PostSCFGGA      .... off
   Density functional embedding theory  .... OFF
   NL short-range parameter             ....  6.400000


General Settings:
 Integral files         IntName         .... licn_pbe_+0001_y
 Hartree-Fock type      HFTyp           .... UHF
 Total Charge           Charge          ....    0
 Multiplicity           Mult            ....    1
 Number of Electrons    NEL             ....   16
 Basis Dimension        Dim             ....  373
 Nuclear Repulsion      ENuc            ....     29.0850277302 Eh

Convergence Acceleration:
 DIIS                   CNVDIIS         .... on
   Start iteration      DIISMaxIt       ....    12
   Startup error        DIISStart       ....  0.200000
   # of expansion vecs  DIISMaxEq       ....     5
   Bias factor          DIISBfac        ....   1.050
   Max. coefficient     DIISMaxC        ....  10.000
 Newton-Raphson         CNVNR           .... off
 SOSCF                  CNVSOSCF        .... off
 Level Shifting         CNVShift        .... on
   Level shift para.    LevelShift      ....    0.2500
   Turn off err/grad.   ShiftErr        ....    0.0010
 Zerner damping         CNVZerner       .... off
 Static damping         CNVDamp         .... on
   Fraction old density DampFac         ....    0.7000
   Max. Damping (<1)    DampMax         ....    0.9800
   Min. Damping (>=0)   DampMin         ....    0.0000
   Turn off err/grad.   DampErr         ....    0.1000
 Fernandez-Rico         CNVRico         .... off

SCF Procedure:
 Maximum # iterations   MaxIter         ....   200
 SCF integral mode      SCFMode         .... Direct
   Integral package                     .... LIBINT
 Reset frequency        DirectResetFreq ....    20
 Integral Threshold     Thresh          ....  1.000e-12 Eh
 Primitive CutOff       TCut            ....  1.000e-14 Eh

Convergence Tolerance:
 Convergence Check Mode ConvCheckMode   .... Total+1el-Energy
 Convergence forced     ConvForced      .... 0
 Energy Change          TolE            ....  1.000e-09 Eh
 1-El. energy change                    ....  1.000e-06 Eh
 DIIS Error             TolErr          ....  1.000e-08


Diagonalization of the overlap matrix:
Smallest eigenvalue                        ... 8.815e-07
Time for diagonalization                   ...    0.025 sec
Threshold for overlap eigenvalues          ... 1.000e-08
Number of eigenvalues below threshold      ... 0
Time for construction of square roots      ...    0.025 sec
Total time needed                          ...    0.051 sec

-------------------
DFT GRID GENERATION
-------------------

General Integration Accuracy     IntAcc      ...  5.010
Radial Grid Type                 RadialGrid  ... Gauss-Chebyshev
Angular Grid (max. acc.)         AngularGrid ... Lebedev-434
Angular grid pruning method      GridPruning ... 3 (G Style)
Weight generation scheme         WeightScheme... Becke
Basis function cutoff            BFCut       ...    1.0000e-12
Integration weight cutoff        WCut        ...    1.0000e-14
Grids for H and He will be reduced by one unit

# of grid points (after initial pruning)     ...  31650 (   0.0 sec)
# of grid points (after weights+screening)   ...  31407 (   0.0 sec)
nearest neighbour list constructed           ...    0.0 sec
Grid point re-assignment to atoms done       ...    0.0 sec
Grid point division into batches done        ...    0.2 sec
Reduced shell lists constructed in    0.3 sec

Total number of grid points                  ...    31407
Total number of batches                      ...      493
Average number of points per batch           ...       63
Average number of grid points per atom       ...    10469
Average number of shells per batch           ...    54.05 (60.73%)
Average number of basis functions per batch  ...   225.47 (60.45%)
Average number of large shells per batch     ...    46.73 (86.46%)
Average number of large basis fcns per batch ...   194.68 (86.34%)
Maximum spatial batch extension              ...  30.30, 32.58, 32.58 au
Average spatial batch extension              ...   1.55,  1.67,  1.66 au

Time for grid setup =    0.365 sec

------------------------------
INITIAL GUESS: MODEL POTENTIAL
------------------------------
Loading Hartree-Fock densities                     ... done
Calculating cut-offs                               ... done
Setting up the integral package                    ... done
Initializing the effective Hamiltonian             ... done
Starting the Coulomb interaction                   ... done (   0.0 sec)
Reading the grid                                   ... done
Mapping shells                                     ... done
Starting the XC term evaluation                    ... done (   0.5 sec)
  promolecular density results
     # of electrons  =     15.999997333
     EX              =    -13.283770326
     EC              =     -0.463352887
     EX+EC           =    -13.747123213
Transforming the Hamiltonian                       ... done (   0.0 sec)
Diagonalizing the Hamiltonian                      ... done (   0.0 sec)
Back transforming the eigenvectors                 ... done (   0.0 sec)
Now organizing SCF variables                       ... done
                      ------------------
                      INITIAL GUESS DONE (   1.1 sec)
                      ------------------
--------------
SCF ITERATIONS
--------------
ITER       Energy         Delta-E        Max-DP      RMS-DP      [F,P]     Damp
               ***  Starting incremental Fock matrix formation  ***
  0   -100.1667528218   0.000000000000 0.01936933  0.00020993  0.2712600 0.7000
  1   -100.2272880128  -0.060535191070 0.02091742  0.00016514  0.0919855 0.7000
                               ***Turning on DIIS***
  2   -100.2436807234  -0.016392710600 0.03205242  0.00029482  0.0416693 0.0000
  3   -100.2753228167  -0.031642093204 0.01647089  0.00011667  0.0444755 0.0000
  4   -100.2814587887  -0.006135972037 0.00464914  0.00003902  0.0400541 0.0000
  5   -100.2836930602  -0.002234271558 0.00249490  0.00002071  0.0113937 0.0000
  6   -100.2838879826  -0.000194922373 0.00160846  0.00001063  0.0025559 0.0000
  7   -100.2839027067  -0.000014724045 0.00120759  0.00000821  0.0006948 0.0000
  8   -100.2839059058  -0.000003199094 0.00018952  0.00000144  0.0001822 0.0000
  9   -100.2839059701  -0.000000064379 0.00002268  0.00000031  0.0001383 0.0000
 10   -100.2839059989  -0.000000028734 0.00000610  0.00000006  0.0000205 0.0000
 11   -100.2839059999  -0.000000001005 0.00000241  0.00000002  0.0000042 0.0000
 12   -100.2839060000  -0.000000000097 0.00000316  0.00000003  0.0000011 0.0000
                 **** Energy Check signals convergence ****

               *****************************************************
               *                     SUCCESS                       *
               *           SCF CONVERGED AFTER  13 CYCLES          *
               *****************************************************


----------------
TOTAL SCF ENERGY
----------------

Total Energy       :         -100.28390600 Eh           -2728.86382 eV

Components:
Nuclear Repulsion  :           29.08502773 Eh             791.44384 eV
Electronic Energy  :         -129.36893373 Eh           -3520.30766 eV
One Electron Energy:         -193.47490236 Eh           -5264.71975 eV
Two Electron Energy:           64.10596862 Eh            1744.41209 eV

Virial components:
Potential Energy   :         -200.12294717 Eh           -5445.62224 eV
Kinetic Energy     :           99.83904117 Eh            2716.75843 eV
Virial Ratio       :            2.00445582


DFT components:
N(Alpha)           :        7.999997413158 electrons
N(Beta)            :        7.999997413158 electrons
N(Total)           :       15.999994826315 electrons
E(X)               :      -13.532206354318 Eh       
E(C)               :       -0.482149522313 Eh       
E(XC)              :      -14.014355876631 Eh       
DFET-embed. en.    :        0.000000000000 Eh       

---------------
SCF CONVERGENCE
---------------

  Last Energy change         ...    9.6634e-13  Tolerance :   1.0000e-09
  Last MAX-Density change    ...    1.6408e-06  Tolerance :   1.0000e-08
  Last RMS-Density change    ...    1.8926e-08  Tolerance :   1.0000e-09
  Last DIIS Error            ...    3.9946e-07  Tolerance :   1.0000e-08

             **** THE GBW FILE WAS UPDATED (licn_pbe_+0001_y.gbw) ****
             **** DENSITY FILE WAS UPDATED (licn_pbe_+0001_y.scfp.tmp) ****
             **** ENERGY FILE WAS UPDATED (licn_pbe_+0001_y.en.tmp) ****
----------------------
UHF SPIN CONTAMINATION
----------------------

Warning: in a DFT calculation there is little theoretical justification to 
         calculate <S**2> as in Hartree-Fock theory. We will do it anyways
         but you should keep in mind that the values have only limited relevance

Expectation value of <S**2>     :     0.000000
Ideal value S*(S+1) for S=0.0   :     0.000000
Deviation                       :     0.000000

----------------
ORBITAL ENERGIES
----------------
                 SPIN UP ORBITALS
  NO   OCC          E(Eh)            E(eV) 
   0   1.0000     -13.939806      -379.3214 
   1   1.0000      -9.861049      -268.3328 
   2   1.0000      -1.913210       -52.0611 
   3   1.0000      -0.778523       -21.1847 
   4   1.0000      -0.342582        -9.3221 
   5   1.0000      -0.288408        -7.8480 
   6   1.0000      -0.269429        -7.3315 
   7   1.0000      -0.216713        -5.8970 
   8   0.0000      -0.069000        -1.8776 
   9   0.0000      -0.029136        -0.7928 
  10   0.0000      -0.011741        -0.3195 
  11   0.0000      -0.005165        -0.1405 
  12   0.0000       0.007991         0.2175 
  13   0.0000       0.013902         0.3783 
  14   0.0000       0.017416         0.4739 
  15   0.0000       0.017957         0.4886 
  16   0.0000       0.023146         0.6298 
  17   0.0000       0.035382         0.9628 
  18   0.0000       0.037004         1.0069 
  19   0.0000       0.037924         1.0320 
  20   0.0000       0.040877         1.1123 
  21   0.0000       0.041133         1.1193 
  22   0.0000       0.046679         1.2702 
  23   0.0000       0.052187         1.4201 
  24   0.0000       0.063672         1.7326 
  25   0.0000       0.068263         1.8575 
  26   0.0000       0.071006         1.9322 
  27   0.0000       0.075119         2.0441 
  28   0.0000       0.080692         2.1957 
  29   0.0000       0.081545         2.2190 
  30   0.0000       0.087885         2.3915 
  31   0.0000       0.094857         2.5812 
  32   0.0000       0.096898         2.6367 
  33   0.0000       0.097054         2.6410 
  34   0.0000       0.104695         2.8489 
  35   0.0000       0.105765         2.8780 
  36   0.0000       0.113320         3.0836 
  37   0.0000       0.113424         3.0864 
  38   0.0000       0.126250         3.4354 
  39   0.0000       0.135004         3.6737 
  40   0.0000       0.135527         3.6879 
  41   0.0000       0.138803         3.7770 
  42   0.0000       0.140773         3.8306 
  43   0.0000       0.149931         4.0798 
  44   0.0000       0.156978         4.2716 
  45   0.0000       0.159001         4.3266 
  46   0.0000       0.159512         4.3405 
  47   0.0000       0.159784         4.3480 
  48   0.0000       0.162293         4.4162 
  49   0.0000       0.163243         4.4421 
  50   0.0000       0.169503         4.6124 
  51   0.0000       0.170406         4.6370 
  52   0.0000       0.174902         4.7593 
  53   0.0000       0.177749         4.8368 
  54   0.0000       0.184233         5.0132 
  55   0.0000       0.192008         5.2248 
  56   0.0000       0.200410         5.4534 
  57   0.0000       0.205323         5.5871 
  58   0.0000       0.208600         5.6763 
  59   0.0000       0.215980         5.8771 
  60   0.0000       0.229013         6.2318 
  61   0.0000       0.239070         6.5054 
  62   0.0000       0.257361         7.0031 
  63   0.0000       0.265532         7.2255 
  64   0.0000       0.267355         7.2751 
  65   0.0000       0.271301         7.3825 
  66   0.0000       0.271710         7.3936 
  67   0.0000       0.280829         7.6418 
  68   0.0000       0.282191         7.6788 
  69   0.0000       0.289880         7.8880 
  70   0.0000       0.295395         8.0381 
  71   0.0000       0.304031         8.2731 
  72   0.0000       0.308277         8.3886 
  73   0.0000       0.321255         8.7418 
  74   0.0000       0.325700         8.8627 
  75   0.0000       0.332972         9.0606 
  76   0.0000       0.339344         9.2340 
  77   0.0000       0.341858         9.3024 
  78   0.0000       0.356112         9.6903 
  79   0.0000       0.371836        10.1182 
  80   0.0000       0.377218        10.2646 
  81   0.0000       0.381282        10.3752 
  82   0.0000       0.386161        10.5080 
  83   0.0000       0.397997        10.8300 
  84   0.0000       0.399040        10.8584 
  85   0.0000       0.409336        11.1386 
  86   0.0000       0.420186        11.4339 
  87   0.0000       0.424813        11.5598 
  88   0.0000       0.431368        11.7381 
  89   0.0000       0.436655        11.8820 
  90   0.0000       0.447351        12.1730 
  91   0.0000       0.460946        12.5430 
  92   0.0000       0.472852        12.8670 
  93   0.0000       0.474261        12.9053 
  94   0.0000       0.490914        13.3585 
  95   0.0000       0.497351        13.5336 
  96   0.0000       0.507004        13.7963 
  97   0.0000       0.522164        14.2088 
  98   0.0000       0.534500        14.5445 
  99   0.0000       0.535057        14.5597 
 100   0.0000       0.538915        14.6646 
 101   0.0000       0.557151        15.1609 
 102   0.0000       0.564993        15.3743 
 103   0.0000       0.574702        15.6384 
 104   0.0000       0.574843        15.6423 
 105   0.0000       0.578881        15.7522 
 106   0.0000       0.592007        16.1093 
 107   0.0000       0.592551        16.1241 
 108   0.0000       0.611583        16.6420 
 109   0.0000       0.617068        16.7913 
 110   0.0000       0.626012        17.0347 
 111   0.0000       0.629052        17.1174 
 112   0.0000       0.633631        17.2420 
 113   0.0000       0.644581        17.5399 
 114   0.0000       0.651545        17.7295 
 115   0.0000       0.659682        17.9509 
 116   0.0000       0.665906        18.1202 
 117   0.0000       0.669663        18.2225 
 118   0.0000       0.676136        18.3986 
 119   0.0000       0.682797        18.5798 
 120   0.0000       0.683251        18.5922 
 121   0.0000       0.689213        18.7544 
 122   0.0000       0.689603        18.7651 
 123   0.0000       0.708413        19.2769 
 124   0.0000       0.734888        19.9973 
 125   0.0000       0.735673        20.0187 
 126   0.0000       0.760698        20.6996 
 127   0.0000       0.776979        21.1427 
 128   0.0000       0.790757        21.5176 
 129   0.0000       0.794503        21.6195 
 130   0.0000       0.795946        21.6588 
 131   0.0000       0.823096        22.3976 
 132   0.0000       0.834573        22.7099 
 133   0.0000       0.837737        22.7960 
 134   0.0000       0.842042        22.9131 
 135   0.0000       0.858787        23.3688 
 136   0.0000       0.875565        23.8253 
 137   0.0000       0.902575        24.5603 
 138   0.0000       0.909434        24.7470 
 139   0.0000       0.916875        24.9494 
 140   0.0000       0.925585        25.1864 
 141   0.0000       0.938749        25.5446 
 142   0.0000       0.945581        25.7306 
 143   0.0000       0.957985        26.0681 
 144   0.0000       0.966944        26.3119 
 145   0.0000       0.978318        26.6214 
 146   0.0000       0.998199        27.1624 
 147   0.0000       1.000191        27.2166 
 148   0.0000       1.013384        27.5756 
 149   0.0000       1.034347        28.1460 
 150   0.0000       1.036487        28.2042 
 151   0.0000       1.053335        28.6627 
 152   0.0000       1.057109        28.7654 
 153   0.0000       1.061012        28.8716 
 154   0.0000       1.091634        29.7049 
 155   0.0000       1.093424        29.7536 
 156   0.0000       1.095745        29.8167 
 157   0.0000       1.110151        30.2087 
 158   0.0000       1.132142        30.8072 
 159   0.0000       1.159744        31.5582 
 160   0.0000       1.162725        31.6394 
 161   0.0000       1.190988        32.4084 
 162   0.0000       1.199062        32.6281 
 163   0.0000       1.210947        32.9515 
 164   0.0000       1.243933        33.8491 
 165   0.0000       1.254599        34.1394 
 166   0.0000       1.260941        34.3120 
 167   0.0000       1.300647        35.3924 
 168   0.0000       1.339414        36.4473 
 169   0.0000       1.354840        36.8671 
 170   0.0000       1.405800        38.2538 
 171   0.0000       1.472416        40.0665 
 172   0.0000       1.485107        40.4118 
 173   0.0000       1.526455        41.5369 
 174   0.0000       1.570330        42.7308 
 175   0.0000       1.578948        42.9654 
 176   0.0000       1.615139        43.9502 
 177   0.0000       1.620616        44.0992 
 178   0.0000       1.655271        45.0422 
 179   0.0000       1.696260        46.1576 
 180   0.0000       1.754878        47.7527 
 181   0.0000       1.786011        48.5998 
 182   0.0000       1.804132        49.0929 
 183   0.0000       1.837215        49.9932 
 184   0.0000       1.866707        50.7957 
 185   0.0000       1.959767        53.3280 
 186   0.0000       1.996472        54.3268 
 187   0.0000       2.064740        56.1844 
 188   0.0000       2.089792        56.8661 
 189   0.0000       2.101893        57.1954 
 190   0.0000       2.122446        57.7547 
 191   0.0000       2.170368        59.0587 
 192   0.0000       2.192410        59.6585 
 193   0.0000       2.193653        59.6923 
 194   0.0000       2.219684        60.4007 
 195   0.0000       2.221426        60.4481 
 196   0.0000       2.276536        61.9477 
 197   0.0000       2.305670        62.7405 
 198   0.0000       2.345501        63.8243 
 199   0.0000       2.409461        65.5648 
 200   0.0000       2.459402        66.9237 
 201   0.0000       2.474003        67.3210 
 202   0.0000       2.492742        67.8310 
 203   0.0000       2.545940        69.2785 
 204   0.0000       2.555387        69.5356 
 205   0.0000       2.611267        71.0562 
 206   0.0000       2.613630        71.1205 
 207   0.0000       2.684562        73.0507 
 208   0.0000       2.698620        73.4332 
 209   0.0000       2.739529        74.5464 
 210   0.0000       2.747965        74.7759 
 211   0.0000       2.752215        74.8916 
 212   0.0000       2.828978        76.9804 
 213   0.0000       2.885485        78.5180 
 214   0.0000       2.915361        79.3310 
 215   0.0000       3.000361        81.6440 
 216   0.0000       3.035872        82.6103 
 217   0.0000       3.067663        83.4754 
 218   0.0000       3.072627        83.6104 
 219   0.0000       3.077323        83.7382 
 220   0.0000       3.118500        84.8587 
 221   0.0000       3.180578        86.5479 
 222   0.0000       3.199559        87.0644 
 223   0.0000       3.248031        88.3834 
 224   0.0000       3.322883        90.4202 
 225   0.0000       3.349294        91.1389 
 226   0.0000       3.448474        93.8377 
 227   0.0000       3.468820        94.3914 
 228   0.0000       3.544867        96.4607 
 229   0.0000       3.789788       103.1254 
 230   0.0000       3.855494       104.9133 
 231   0.0000       4.055083       110.3444 
 232   0.0000       4.126056       112.2757 
 233   0.0000       4.172744       113.5461 
 234   0.0000       4.183395       113.8360 
 235   0.0000       4.237826       115.3171 
 236   0.0000       4.252556       115.7179 
 237   0.0000       4.355206       118.5112 
 238   0.0000       4.438504       120.7778 
 239   0.0000       4.536763       123.4516 
 240   0.0000       4.550461       123.8243 
 241   0.0000       4.602601       125.2431 
 242   0.0000       4.616662       125.6258 
 243   0.0000       4.748523       129.2139 
 244   0.0000       4.767939       129.7422 
 245   0.0000       4.804580       130.7393 
 246   0.0000       4.831568       131.4736 
 247   0.0000       4.846573       131.8820 
 248   0.0000       4.872055       132.5754 
 249   0.0000       4.901054       133.3644 
 250   0.0000       4.965045       135.1057 
 251   0.0000       5.052694       137.4908 
 252   0.0000       5.138701       139.8312 
 253   0.0000       5.239513       142.5744 
 254   0.0000       5.256671       143.0413 
 255   0.0000       5.270669       143.4222 
 256   0.0000       5.327962       144.9812 
 257   0.0000       5.343289       145.3983 
 258   0.0000       5.407398       147.1428 
 259   0.0000       5.436902       147.9456 
 260   0.0000       5.543320       150.8414 
 261   0.0000       5.659630       154.0064 
 262   0.0000       5.668384       154.2446 
 263   0.0000       5.832680       158.7153 
 264   0.0000       5.923531       161.1875 
 265   0.0000       6.033539       164.1809 
 266   0.0000       6.044103       164.4684 
 267   0.0000       6.093205       165.8045 
 268   0.0000       6.275904       170.7760 
 269   0.0000       6.318123       171.9249 
 270   0.0000       6.414300       174.5420 
 271   0.0000       6.507471       177.0773 
 272   0.0000       6.655843       181.1147 
 273   0.0000       6.657237       181.1526 
 274   0.0000       6.815202       185.4511 
 275   0.0000       6.833933       185.9608 
 276   0.0000       6.905439       187.9065 
 277   0.0000       7.070747       192.4048 
 278   0.0000       7.102825       193.2777 
 279   0.0000       7.329689       199.4510 
 280   0.0000       7.858649       213.8447 
 281   0.0000       8.128627       221.1912 
 282   0.0000       8.270179       225.0430 
 283   0.0000       8.334547       226.7945 
 284   0.0000       9.175807       249.6864 
 285   0.0000       9.438055       256.8225 
 286   0.0000       9.782171       266.1864 
 287   0.0000      10.174151       276.8527 
 288   0.0000      10.189135       277.2605 
 289   0.0000      10.233159       278.4584 
 290   0.0000      10.274595       279.5860 
 291   0.0000      10.342819       281.4424 
 292   0.0000      10.431735       283.8619 
 293   0.0000      10.432057       283.8707 
 294   0.0000      10.448157       284.3088 
 295   0.0000      10.523094       286.3480 
 296   0.0000      10.625529       289.1353 
 297   0.0000      10.632090       289.3139 
 298   0.0000      10.734609       292.1036 
 299   0.0000      10.841651       295.0163 
 300   0.0000      10.844385       295.0907 
 301   0.0000      10.895724       296.4877 
 302   0.0000      11.050789       300.7073 
 303   0.0000      11.090695       301.7932 
 304   0.0000      11.386542       309.8436 
 305   0.0000      11.476104       312.2807 
 306   0.0000      11.483018       312.4688 
 307   0.0000      11.508497       313.1621 
 308   0.0000      11.526451       313.6507 
 309   0.0000      11.569903       314.8331 
 310   0.0000      11.577231       315.0325 
 311   0.0000      11.584728       315.2365 
 312   0.0000      11.631846       316.5186 
 313   0.0000      11.668267       317.5097 
 314   0.0000      11.722403       318.9828 
 315   0.0000      11.723813       319.0212 
 316   0.0000      11.835614       322.0634 
 317   0.0000      11.914938       324.2219 
 318   0.0000      11.949810       325.1709 
 319   0.0000      12.098463       329.2159 
 320   0.0000      12.122790       329.8779 
 321   0.0000      12.124644       329.9283 
 322   0.0000      12.269258       333.8635 
 323   0.0000      12.459103       339.0294 
 324   0.0000      12.507477       340.3458 
 325   0.0000      12.651129       344.2547 
 326   0.0000      12.724742       346.2578 
 327   0.0000      12.846305       349.5657 
 328   0.0000      12.964639       352.7858 
 329   0.0000      12.970273       352.9391 
 330   0.0000      13.536831       368.3559 
 331   0.0000      13.704807       372.9268 
 332   0.0000      13.768468       374.6591 
 333   0.0000      14.528443       395.3390 
 334   0.0000      14.561586       396.2409 
 335   0.0000      14.645948       398.5365 
 336   0.0000      14.751855       401.4184 
 337   0.0000      14.761816       401.6894 
 338   0.0000      15.005153       408.3110 
 339   0.0000      15.063049       409.8864 
 340   0.0000      15.374709       418.3671 
 341   0.0000      15.431974       419.9254 
 342   0.0000      15.593893       424.3314 
 343   0.0000      15.810382       430.2224 
 344   0.0000      15.890996       432.4160 
 345   0.0000      16.020269       435.9337 
 346   0.0000      16.728441       455.2040 
 347   0.0000      16.888589       459.5619 
 348   0.0000      16.971050       461.8057 
 349   0.0000      17.141488       466.4436 
 350   0.0000      17.685599       481.2496 
 351   0.0000      17.728090       482.4058 
 352   0.0000      17.771471       483.5863 
 353   0.0000      18.652688       507.5654 
 354   0.0000      19.070153       518.9252 
 355   0.0000      19.118982       520.2539 
 356   0.0000      21.469274       584.2087 
 357   0.0000      24.013097       653.4296 
 358   0.0000      26.138169       711.2557 
 359   0.0000      26.413916       718.7592 
 360   0.0000      27.945170       760.4267 
 361   0.0000      31.962310       869.7387 
 362   0.0000      32.050748       872.1452 
 363   0.0000      32.895681       895.1370 
 364   0.0000      32.913782       895.6295 
 365   0.0000      34.427209       936.8120 
 366   0.0000      47.761455      1299.6553 
 367   0.0000      47.882620      1302.9523 
 368   0.0000      48.013590      1306.5162 
 369   0.0000      48.069410      1308.0352 
 370   0.0000      48.952097      1332.0543 
 371   0.0000      74.272155      2021.0481 
 372   0.0000     104.191382      2835.1916 

                 SPIN DOWN ORBITALS
  NO   OCC          E(Eh)            E(eV) 
   0   1.0000     -13.939806      -379.3214 
   1   1.0000      -9.861049      -268.3328 
   2   1.0000      -1.913210       -52.0611 
   3   1.0000      -0.778523       -21.1847 
   4   1.0000      -0.342582        -9.3221 
   5   1.0000      -0.288408        -7.8480 
   6   1.0000      -0.269429        -7.3315 
   7   1.0000      -0.216713        -5.8970 
   8   0.0000      -0.069000        -1.8776 
   9   0.0000      -0.029136        -0.7928 
  10   0.0000      -0.011741        -0.3195 
  11   0.0000      -0.005165        -0.1405 
  12   0.0000       0.007991         0.2175 
  13   0.0000       0.013902         0.3783 
  14   0.0000       0.017416         0.4739 
  15   0.0000       0.017957         0.4886 
  16   0.0000       0.023146         0.6298 
  17   0.0000       0.035382         0.9628 
  18   0.0000       0.037004         1.0069 
  19   0.0000       0.037924         1.0320 
  20   0.0000       0.040877         1.1123 
  21   0.0000       0.041133         1.1193 
  22   0.0000       0.046679         1.2702 
  23   0.0000       0.052187         1.4201 
  24   0.0000       0.063672         1.7326 
  25   0.0000       0.068263         1.8575 
  26   0.0000       0.071006         1.9322 
  27   0.0000       0.075119         2.0441 
  28   0.0000       0.080692         2.1957 
  29   0.0000       0.081545         2.2190 
  30   0.0000       0.087885         2.3915 
  31   0.0000       0.094857         2.5812 
  32   0.0000       0.096898         2.6367 
  33   0.0000       0.097054         2.6410 
  34   0.0000       0.104695         2.8489 
  35   0.0000       0.105765         2.8780 
  36   0.0000       0.113320         3.0836 
  37   0.0000       0.113424         3.0864 
  38   0.0000       0.126250         3.4354 
  39   0.0000       0.135004         3.6737 
  40   0.0000       0.135527         3.6879 
  41   0.0000       0.138803         3.7770 
  42   0.0000       0.140773         3.8306 
  43   0.0000       0.149931         4.0798 
  44   0.0000       0.156978         4.2716 
  45   0.0000       0.159001         4.3266 
  46   0.0000       0.159512         4.3405 
  47   0.0000       0.159784         4.3480 
  48   0.0000       0.162293         4.4162 
  49   0.0000       0.163243         4.4421 
  50   0.0000       0.169503         4.6124 
  51   0.0000       0.170406         4.6370 
  52   0.0000       0.174902         4.7593 
  53   0.0000       0.177749         4.8368 
  54   0.0000       0.184233         5.0132 
  55   0.0000       0.192008         5.2248 
  56   0.0000       0.200410         5.4534 
  57   0.0000       0.205323         5.5871 
  58   0.0000       0.208600         5.6763 
  59   0.0000       0.215980         5.8771 
  60   0.0000       0.229013         6.2318 
  61   0.0000       0.239070         6.5054 
  62   0.0000       0.257361         7.0031 
  63   0.0000       0.265532         7.2255 
  64   0.0000       0.267355         7.2751 
  65   0.0000       0.271301         7.3825 
  66   0.0000       0.271710         7.3936 
  67   0.0000       0.280829         7.6418 
  68   0.0000       0.282191         7.6788 
  69   0.0000       0.289880         7.8880 
  70   0.0000       0.295395         8.0381 
  71   0.0000       0.304031         8.2731 
  72   0.0000       0.308277         8.3886 
  73   0.0000       0.321255         8.7418 
  74   0.0000       0.325700         8.8627 
  75   0.0000       0.332972         9.0606 
  76   0.0000       0.339344         9.2340 
  77   0.0000       0.341858         9.3024 
  78   0.0000       0.356112         9.6903 
  79   0.0000       0.371836        10.1182 
  80   0.0000       0.377218        10.2646 
  81   0.0000       0.381282        10.3752 
  82   0.0000       0.386161        10.5080 
  83   0.0000       0.397997        10.8300 
  84   0.0000       0.399040        10.8584 
  85   0.0000       0.409336        11.1386 
  86   0.0000       0.420186        11.4339 
  87   0.0000       0.424813        11.5598 
  88   0.0000       0.431368        11.7381 
  89   0.0000       0.436655        11.8820 
  90   0.0000       0.447351        12.1730 
  91   0.0000       0.460946        12.5430 
  92   0.0000       0.472852        12.8670 
  93   0.0000       0.474261        12.9053 
  94   0.0000       0.490914        13.3585 
  95   0.0000       0.497351        13.5336 
  96   0.0000       0.507004        13.7963 
  97   0.0000       0.522164        14.2088 
  98   0.0000       0.534500        14.5445 
  99   0.0000       0.535057        14.5597 
 100   0.0000       0.538915        14.6646 
 101   0.0000       0.557151        15.1609 
 102   0.0000       0.564993        15.3743 
 103   0.0000       0.574702        15.6384 
 104   0.0000       0.574843        15.6423 
 105   0.0000       0.578881        15.7522 
 106   0.0000       0.592007        16.1093 
 107   0.0000       0.592551        16.1241 
 108   0.0000       0.611583        16.6420 
 109   0.0000       0.617068        16.7913 
 110   0.0000       0.626012        17.0347 
 111   0.0000       0.629052        17.1174 
 112   0.0000       0.633631        17.2420 
 113   0.0000       0.644581        17.5399 
 114   0.0000       0.651545        17.7295 
 115   0.0000       0.659682        17.9509 
 116   0.0000       0.665906        18.1202 
 117   0.0000       0.669663        18.2225 
 118   0.0000       0.676136        18.3986 
 119   0.0000       0.682797        18.5798 
 120   0.0000       0.683251        18.5922 
 121   0.0000       0.689213        18.7544 
 122   0.0000       0.689603        18.7651 
 123   0.0000       0.708413        19.2769 
 124   0.0000       0.734888        19.9973 
 125   0.0000       0.735673        20.0187 
 126   0.0000       0.760698        20.6996 
 127   0.0000       0.776979        21.1427 
 128   0.0000       0.790757        21.5176 
 129   0.0000       0.794503        21.6195 
 130   0.0000       0.795946        21.6588 
 131   0.0000       0.823096        22.3976 
 132   0.0000       0.834573        22.7099 
 133   0.0000       0.837737        22.7960 
 134   0.0000       0.842042        22.9131 
 135   0.0000       0.858787        23.3688 
 136   0.0000       0.875565        23.8253 
 137   0.0000       0.902575        24.5603 
 138   0.0000       0.909434        24.7470 
 139   0.0000       0.916875        24.9494 
 140   0.0000       0.925585        25.1864 
 141   0.0000       0.938749        25.5446 
 142   0.0000       0.945581        25.7306 
 143   0.0000       0.957985        26.0681 
 144   0.0000       0.966944        26.3119 
 145   0.0000       0.978318        26.6214 
 146   0.0000       0.998199        27.1624 
 147   0.0000       1.000191        27.2166 
 148   0.0000       1.013384        27.5756 
 149   0.0000       1.034347        28.1460 
 150   0.0000       1.036487        28.2042 
 151   0.0000       1.053335        28.6627 
 152   0.0000       1.057109        28.7654 
 153   0.0000       1.061012        28.8716 
 154   0.0000       1.091634        29.7049 
 155   0.0000       1.093424        29.7536 
 156   0.0000       1.095745        29.8167 
 157   0.0000       1.110151        30.2087 
 158   0.0000       1.132142        30.8072 
 159   0.0000       1.159744        31.5582 
 160   0.0000       1.162725        31.6394 
 161   0.0000       1.190988        32.4084 
 162   0.0000       1.199062        32.6281 
 163   0.0000       1.210947        32.9515 
 164   0.0000       1.243933        33.8491 
 165   0.0000       1.254599        34.1394 
 166   0.0000       1.260941        34.3120 
 167   0.0000       1.300647        35.3924 
 168   0.0000       1.339414        36.4473 
 169   0.0000       1.354840        36.8671 
 170   0.0000       1.405800        38.2538 
 171   0.0000       1.472416        40.0665 
 172   0.0000       1.485107        40.4118 
 173   0.0000       1.526455        41.5369 
 174   0.0000       1.570330        42.7308 
 175   0.0000       1.578948        42.9654 
 176   0.0000       1.615139        43.9502 
 177   0.0000       1.620616        44.0992 
 178   0.0000       1.655271        45.0422 
 179   0.0000       1.696260        46.1576 
 180   0.0000       1.754878        47.7527 
 181   0.0000       1.786011        48.5998 
 182   0.0000       1.804132        49.0929 
 183   0.0000       1.837215        49.9932 
 184   0.0000       1.866707        50.7957 
 185   0.0000       1.959767        53.3280 
 186   0.0000       1.996472        54.3268 
 187   0.0000       2.064740        56.1844 
 188   0.0000       2.089792        56.8661 
 189   0.0000       2.101893        57.1954 
 190   0.0000       2.122446        57.7547 
 191   0.0000       2.170368        59.0587 
 192   0.0000       2.192410        59.6585 
 193   0.0000       2.193653        59.6923 
 194   0.0000       2.219684        60.4007 
 195   0.0000       2.221426        60.4481 
 196   0.0000       2.276536        61.9477 
 197   0.0000       2.305670        62.7405 
 198   0.0000       2.345501        63.8243 
 199   0.0000       2.409461        65.5648 
 200   0.0000       2.459402        66.9237 
 201   0.0000       2.474003        67.3210 
 202   0.0000       2.492742        67.8310 
 203   0.0000       2.545940        69.2785 
 204   0.0000       2.555387        69.5356 
 205   0.0000       2.611267        71.0562 
 206   0.0000       2.613630        71.1205 
 207   0.0000       2.684562        73.0507 
 208   0.0000       2.698620        73.4332 
 209   0.0000       2.739529        74.5464 
 210   0.0000       2.747965        74.7759 
 211   0.0000       2.752215        74.8916 
 212   0.0000       2.828978        76.9804 
 213   0.0000       2.885485        78.5180 
 214   0.0000       2.915361        79.3310 
 215   0.0000       3.000361        81.6440 
 216   0.0000       3.035872        82.6103 
 217   0.0000       3.067663        83.4754 
 218   0.0000       3.072627        83.6104 
 219   0.0000       3.077323        83.7382 
 220   0.0000       3.118500        84.8587 
 221   0.0000       3.180578        86.5479 
 222   0.0000       3.199559        87.0644 
 223   0.0000       3.248031        88.3834 
 224   0.0000       3.322883        90.4202 
 225   0.0000       3.349294        91.1389 
 226   0.0000       3.448474        93.8377 
 227   0.0000       3.468820        94.3914 
 228   0.0000       3.544867        96.4607 
 229   0.0000       3.789788       103.1254 
 230   0.0000       3.855494       104.9133 
 231   0.0000       4.055083       110.3444 
 232   0.0000       4.126056       112.2757 
 233   0.0000       4.172744       113.5461 
 234   0.0000       4.183395       113.8360 
 235   0.0000       4.237826       115.3171 
 236   0.0000       4.252556       115.7179 
 237   0.0000       4.355206       118.5112 
 238   0.0000       4.438504       120.7778 
 239   0.0000       4.536763       123.4516 
 240   0.0000       4.550461       123.8243 
 241   0.0000       4.602601       125.2431 
 242   0.0000       4.616662       125.6258 
 243   0.0000       4.748523       129.2139 
 244   0.0000       4.767939       129.7422 
 245   0.0000       4.804580       130.7393 
 246   0.0000       4.831568       131.4736 
 247   0.0000       4.846573       131.8820 
 248   0.0000       4.872055       132.5754 
 249   0.0000       4.901054       133.3644 
 250   0.0000       4.965045       135.1057 
 251   0.0000       5.052694       137.4908 
 252   0.0000       5.138701       139.8312 
 253   0.0000       5.239513       142.5744 
 254   0.0000       5.256671       143.0413 
 255   0.0000       5.270669       143.4222 
 256   0.0000       5.327962       144.9812 
 257   0.0000       5.343289       145.3983 
 258   0.0000       5.407398       147.1428 
 259   0.0000       5.436902       147.9456 
 260   0.0000       5.543320       150.8414 
 261   0.0000       5.659630       154.0064 
 262   0.0000       5.668384       154.2446 
 263   0.0000       5.832680       158.7153 
 264   0.0000       5.923531       161.1875 
 265   0.0000       6.033539       164.1809 
 266   0.0000       6.044103       164.4684 
 267   0.0000       6.093205       165.8045 
 268   0.0000       6.275904       170.7760 
 269   0.0000       6.318123       171.9249 
 270   0.0000       6.414300       174.5420 
 271   0.0000       6.507471       177.0773 
 272   0.0000       6.655843       181.1147 
 273   0.0000       6.657237       181.1526 
 274   0.0000       6.815202       185.4511 
 275   0.0000       6.833933       185.9608 
 276   0.0000       6.905439       187.9065 
 277   0.0000       7.070747       192.4048 
 278   0.0000       7.102825       193.2777 
 279   0.0000       7.329689       199.4510 
 280   0.0000       7.858649       213.8447 
 281   0.0000       8.128627       221.1912 
 282   0.0000       8.270179       225.0430 
 283   0.0000       8.334547       226.7945 
 284   0.0000       9.175807       249.6864 
 285   0.0000       9.438055       256.8225 
 286   0.0000       9.782171       266.1864 
 287   0.0000      10.174151       276.8527 
 288   0.0000      10.189135       277.2605 
 289   0.0000      10.233159       278.4584 
 290   0.0000      10.274595       279.5860 
 291   0.0000      10.342819       281.4424 
 292   0.0000      10.431735       283.8619 
 293   0.0000      10.432057       283.8707 
 294   0.0000      10.448157       284.3088 
 295   0.0000      10.523094       286.3480 
 296   0.0000      10.625529       289.1353 
 297   0.0000      10.632090       289.3139 
 298   0.0000      10.734609       292.1036 
 299   0.0000      10.841651       295.0163 
 300   0.0000      10.844385       295.0907 
 301   0.0000      10.895724       296.4877 
 302   0.0000      11.050789       300.7073 
 303   0.0000      11.090695       301.7932 
 304   0.0000      11.386542       309.8436 
 305   0.0000      11.476104       312.2807 
 306   0.0000      11.483018       312.4688 
 307   0.0000      11.508497       313.1621 
 308   0.0000      11.526451       313.6507 
 309   0.0000      11.569903       314.8331 
 310   0.0000      11.577231       315.0325 
 311   0.0000      11.584728       315.2365 
 312   0.0000      11.631846       316.5186 
 313   0.0000      11.668267       317.5097 
 314   0.0000      11.722403       318.9828 
 315   0.0000      11.723813       319.0212 
 316   0.0000      11.835614       322.0634 
 317   0.0000      11.914938       324.2219 
 318   0.0000      11.949810       325.1709 
 319   0.0000      12.098463       329.2159 
 320   0.0000      12.122790       329.8779 
 321   0.0000      12.124644       329.9283 
 322   0.0000      12.269258       333.8635 
 323   0.0000      12.459103       339.0294 
 324   0.0000      12.507477       340.3458 
 325   0.0000      12.651129       344.2547 
 326   0.0000      12.724742       346.2578 
 327   0.0000      12.846305       349.5657 
 328   0.0000      12.964639       352.7858 
 329   0.0000      12.970273       352.9391 
 330   0.0000      13.536831       368.3559 
 331   0.0000      13.704807       372.9268 
 332   0.0000      13.768468       374.6591 
 333   0.0000      14.528443       395.3390 
 334   0.0000      14.561586       396.2409 
 335   0.0000      14.645948       398.5365 
 336   0.0000      14.751855       401.4184 
 337   0.0000      14.761816       401.6894 
 338   0.0000      15.005153       408.3110 
 339   0.0000      15.063049       409.8864 
 340   0.0000      15.374709       418.3671 
 341   0.0000      15.431974       419.9254 
 342   0.0000      15.593893       424.3314 
 343   0.0000      15.810382       430.2224 
 344   0.0000      15.890996       432.4160 
 345   0.0000      16.020269       435.9337 
 346   0.0000      16.728441       455.2040 
 347   0.0000      16.888589       459.5619 
 348   0.0000      16.971050       461.8057 
 349   0.0000      17.141488       466.4436 
 350   0.0000      17.685599       481.2496 
 351   0.0000      17.728090       482.4058 
 352   0.0000      17.771471       483.5863 
 353   0.0000      18.652688       507.5654 
 354   0.0000      19.070153       518.9252 
 355   0.0000      19.118982       520.2539 
 356   0.0000      21.469274       584.2087 
 357   0.0000      24.013097       653.4296 
 358   0.0000      26.138169       711.2557 
 359   0.0000      26.413916       718.7592 
 360   0.0000      27.945170       760.4267 
 361   0.0000      31.962310       869.7387 
 362   0.0000      32.050748       872.1452 
 363   0.0000      32.895681       895.1370 
 364   0.0000      32.913782       895.6295 
 365   0.0000      34.427209       936.8120 
 366   0.0000      47.761455      1299.6553 
 367   0.0000      47.882620      1302.9523 
 368   0.0000      48.013590      1306.5162 
 369   0.0000      48.069410      1308.0352 
 370   0.0000      48.952097      1332.0543 
 371   0.0000      74.272155      2021.0481 
 372   0.0000     104.191382      2835.1916 

                    ********************************
                    * MULLIKEN POPULATION ANALYSIS *
                    ********************************

--------------------------------------------
MULLIKEN ATOMIC CHARGES AND SPIN POPULATIONS
--------------------------------------------
   0 Li:    0.701810    0.000000
   1 C :   -0.388022   -0.000000
   2 N :   -0.313789    0.000000
Sum of atomic charges         :    0.0000000
Sum of atomic spin populations:    0.0000000

-----------------------------------------------------
MULLIKEN REDUCED ORBITAL CHARGES AND SPIN POPULATIONS
-----------------------------------------------------
CHARGE
  0 Lis       :     2.066413  s :     2.066413
      pz      :     0.052411  p :     0.175896
      px      :     0.066917
      py      :     0.056569
      dz2     :     0.003049  d :     0.046418
      dxz     :     0.014210
      dyz     :     0.003508
      dx2y2   :     0.013360
      dxy     :     0.012292
      f0      :     0.001285  f :     0.009094
      f+1     :     0.000940
      f-1     :     0.000341
      f+2     :     0.000546
      f-2     :     0.001159
      f+3     :     0.002586
      f-3     :     0.002237
      g0      :     0.000062  g :     0.000369
      g+1     :    -0.000014
      g-1     :     0.000016
      g+2     :     0.000080
      g-2     :     0.000053
      g+3     :    -0.000006
      g-3     :     0.000034
      g+4     :     0.000036
      g-4     :     0.000108
  1 C s       :     3.821931  s :     3.821931
      pz      :     0.703496  p :     2.493742
      px      :     0.793692
      py      :     0.996555
      dz2     :     0.005483  d :     0.066322
      dxz     :     0.008395
      dyz     :     0.016462
      dx2y2   :     0.019781
      dxy     :     0.016201
      f0      :     0.001064  f :     0.005442
      f+1     :     0.000368
      f-1     :     0.000361
      f+2     :     0.000069
      f-2     :     0.001219
      f+3     :     0.000196
      f-3     :     0.002167
      g0      :     0.000003  g :     0.000601
      g+1     :     0.000043
      g-1     :     0.000142
      g+2     :    -0.000012
      g-2     :     0.000059
      g+3     :     0.000177
      g-3     :     0.000006
      g+4     :    -0.000077
      g-4     :     0.000260
      h0      :     0.000003  h :    -0.000016
      h+1     :    -0.000004
      h-1     :     0.000003
      h+2     :     0.000001
      h-2     :     0.000008
      h+3     :    -0.000024
      h-3     :     0.000012
      h+4     :     0.000006
      h-4     :     0.000002
      h+5     :    -0.000026
      h-5     :     0.000003
  2 N s       :     3.854896  s :     3.854896
      pz      :     1.176660  p :     3.422114
      px      :     1.131191
      py      :     1.114263
      dz2     :     0.005005  d :     0.035082
      dxz     :     0.001535
      dyz     :     0.015692
      dx2y2   :     0.009924
      dxy     :     0.002925
      f0      :     0.000817  f :     0.001077
      f+1     :     0.000527
      f-1     :     0.000380
      f+2     :     0.000337
      f-2     :     0.000479
      f+3     :    -0.003105
      f-3     :     0.001642
      g0      :     0.000024  g :     0.000412
      g+1     :     0.000053
      g-1     :     0.000091
      g+2     :     0.000126
      g-2     :    -0.000000
      g+3     :     0.000119
      g-3     :    -0.000034
      g+4     :     0.000283
      g-4     :    -0.000249
      h0      :    -0.000000  h :     0.000208
      h+1     :    -0.000005
      h-1     :     0.000013
      h+2     :     0.000004
      h-2     :     0.000012
      h+3     :    -0.000008
      h-3     :     0.000045
      h+4     :    -0.000009
      h-4     :     0.000003
      h+5     :     0.000101
      h-5     :     0.000052

SPIN
  0 Lis       :     0.000000  s :     0.000000
      pz      :    -0.000000  p :     0.000000
      px      :     0.000000
      py      :     0.000000
      dz2     :    -0.000000  d :     0.000000
      dxz     :    -0.000000
      dyz     :    -0.000000
      dx2y2   :     0.000000
      dxy     :     0.000000
      f0      :    -0.000000  f :     0.000000
      f+1     :    -0.000000
      f-1     :    -0.000000
      f+2     :     0.000000
      f-2     :    -0.000000
      f+3     :    -0.000000
      f-3     :     0.000000
      g0      :     0.000000  g :    -0.000000
      g+1     :    -0.000000
      g-1     :    -0.000000
      g+2     :    -0.000000
      g-2     :    -0.000000
      g+3     :     0.000000
      g-3     :    -0.000000
      g+4     :     0.000000
      g-4     :    -0.000000
  1 C s       :    -0.000000  s :    -0.000000
      pz      :    -0.000000  p :     0.000000
      px      :     0.000000
      py      :     0.000000
      dz2     :     0.000000  d :     0.000000
      dxz     :     0.000000
      dyz     :     0.000000
      dx2y2   :     0.000000
      dxy     :     0.000000
      f0      :     0.000000  f :     0.000000
      f+1     :    -0.000000
      f-1     :     0.000000
      f+2     :    -0.000000
      f-2     :     0.000000
      f+3     :     0.000000
      f-3     :    -0.000000
      g0      :    -0.000000  g :    -0.000000
      g+1     :     0.000000
      g-1     :     0.000000
      g+2     :    -0.000000
      g-2     :     0.000000
      g+3     :     0.000000
      g-3     :     0.000000
      g+4     :    -0.000000
      g-4     :    -0.000000
      h0      :     0.000000  h :    -0.000000
      h+1     :     0.000000
      h-1     :     0.000000
      h+2     :    -0.000000
      h-2     :     0.000000
      h+3     :     0.000000
      h-3     :    -0.000000
      h+4     :     0.000000
      h-4     :    -0.000000
      h+5     :    -0.000000
      h-5     :     0.000000
  2 N s       :    -0.000000  s :    -0.000000
      pz      :    -0.000000  p :     0.000000
      px      :     0.000000
      py      :     0.000000
      dz2     :     0.000000  d :     0.000000
      dxz     :     0.000000
      dyz     :     0.000000
      dx2y2   :     0.000000
      dxy     :     0.000000
      f0      :    -0.000000  f :     0.000000
      f+1     :     0.000000
      f-1     :    -0.000000
      f+2     :     0.000000
      f-2     :     0.000000
      f+3     :     0.000000
      f-3     :     0.000000
      g0      :    -0.000000  g :    -0.000000
      g+1     :     0.000000
      g-1     :    -0.000000
      g+2     :    -0.000000
      g-2     :     0.000000
      g+3     :     0.000000
      g-3     :    -0.000000
      g+4     :    -0.000000
      g-4     :    -0.000000
      h0      :     0.000000  h :    -0.000000
      h+1     :     0.000000
      h-1     :    -0.000000
      h+2     :    -0.000000
      h-2     :    -0.000000
      h+3     :     0.000000
      h-3     :     0.000000
      h+4     :     0.000000
      h-4     :     0.000000
      h+5     :    -0.000000
      h-5     :    -0.000000


                     *******************************
                     * LOEWDIN POPULATION ANALYSIS *
                     *******************************

-------------------------------------------
LOEWDIN ATOMIC CHARGES AND SPIN POPULATIONS
-------------------------------------------
   0 Li:    0.105941   -0.000000
   1 C :   -0.113790    0.000000
   2 N :    0.007849    0.000000

----------------------------------------------------
LOEWDIN REDUCED ORBITAL CHARGES AND SPIN POPULATIONS
----------------------------------------------------
CHARGE
  0 Lis       :     2.067179  s :     2.067179
      pz      :     0.050885  p :     0.351405
      px      :     0.210582
      py      :     0.089939
      dz2     :     0.041315  d :     0.275058
      dxz     :     0.048485
      dyz     :     0.012129
      dx2y2   :     0.085425
      dxy     :     0.087704
      f0      :     0.020102  f :     0.175520
      f+1     :     0.020569
      f-1     :     0.010306
      f+2     :     0.007433
      f-2     :     0.015537
      f+3     :     0.058207
      f-3     :     0.043365
      g0      :     0.001880  g :     0.024897
      g+1     :     0.003140
      g-1     :     0.000850
      g+2     :     0.002344
      g-2     :     0.002674
      g+3     :     0.000076
      g-3     :     0.001331
      g+4     :     0.005788
      g-4     :     0.006813
  1 C s       :     3.006395  s :     3.006395
      pz      :     0.641527  p :     2.519723
      px      :     0.814297
      py      :     1.063899
      dz2     :     0.051713  d :     0.407711
      dxz     :     0.035404
      dyz     :     0.059909
      dx2y2   :     0.121575
      dxy     :     0.139111
      f0      :     0.015281  f :     0.129457
      f+1     :     0.008774
      f-1     :     0.013718
      f+2     :     0.003175
      f-2     :     0.019313
      f+3     :     0.033513
      f-3     :     0.035683
      g0      :     0.002215  g :     0.038207
      g+1     :     0.002263
      g-1     :     0.004016
      g+2     :     0.003461
      g-2     :     0.003204
      g+3     :     0.003934
      g-3     :     0.000133
      g+4     :     0.011024
      g-4     :     0.007956
      h0      :     0.000440  h :     0.012297
      h+1     :     0.001546
      h-1     :     0.000302
      h+2     :     0.000038
      h-2     :     0.000473
      h+3     :     0.002506
      h-3     :     0.000418
      h+4     :     0.000105
      h-4     :     0.000285
      h+5     :     0.004779
      h-5     :     0.001406
  2 N s       :     3.105408  s :     3.105408
      pz      :     0.978977  p :     3.439226
      px      :     1.137743
      py      :     1.322506
      dz2     :     0.045632  d :     0.288331
      dxz     :     0.010432
      dyz     :     0.037166
      dx2y2   :     0.061156
      dxy     :     0.133945
      f0      :     0.009007  f :     0.099161
      f+1     :     0.009526
      f-1     :     0.013771
      f+2     :     0.001854
      f-2     :     0.009306
      f+3     :     0.028648
      f-3     :     0.027049
      g0      :     0.003681  g :     0.039954
      g+1     :     0.000607
      g-1     :     0.002886
      g+2     :     0.001456
      g-2     :     0.008156
      g+3     :     0.001897
      g-3     :     0.000356
      g+4     :     0.015893
      g-4     :     0.005023
      h0      :     0.000380  h :     0.020071
      h+1     :     0.002255
      h-1     :     0.001923
      h+2     :     0.000064
      h-2     :     0.000218
      h+3     :     0.001948
      h-3     :     0.003578
      h+4     :     0.000349
      h-4     :     0.000236
      h+5     :     0.006439
      h-5     :     0.002680

SPIN
  0 Lis       :     0.000000  s :     0.000000
      pz      :    -0.000000  p :    -0.000000
      px      :    -0.000000
      py      :     0.000000
      dz2     :    -0.000000  d :    -0.000000
      dxz     :    -0.000000
      dyz     :    -0.000000
      dx2y2   :    -0.000000
      dxy     :    -0.000000
      f0      :    -0.000000  f :     0.000000
      f+1     :     0.000000
      f-1     :    -0.000000
      f+2     :     0.000000
      f-2     :    -0.000000
      f+3     :    -0.000000
      f-3     :     0.000000
      g0      :     0.000000  g :    -0.000000
      g+1     :    -0.000000
      g-1     :    -0.000000
      g+2     :    -0.000000
      g-2     :    -0.000000
      g+3     :     0.000000
      g-3     :    -0.000000
      g+4     :    -0.000000
      g-4     :    -0.000000
  1 C s       :    -0.000000  s :    -0.000000
      pz      :     0.000000  p :     0.000000
      px      :     0.000000
      py      :     0.000000
      dz2     :     0.000000  d :    -0.000000
      dxz     :    -0.000000
      dyz     :     0.000000
      dx2y2   :     0.000000
      dxy     :    -0.000000
      f0      :     0.000000  f :    -0.000000
      f+1     :     0.000000
      f-1     :    -0.000000
      f+2     :     0.000000
      f-2     :    -0.000000
      f+3     :    -0.000000
      f-3     :     0.000000
      g0      :     0.000000  g :     0.000000
      g+1     :    -0.000000
      g-1     :    -0.000000
      g+2     :    -0.000000
      g-2     :     0.000000
      g+3     :     0.000000
      g-3     :     0.000000
      g+4     :     0.000000
      g-4     :     0.000000
      h0      :    -0.000000  h :     0.000000
      h+1     :     0.000000
      h-1     :     0.000000
      h+2     :    -0.000000
      h-2     :     0.000000
      h+3     :     0.000000
      h-3     :    -0.000000
      h+4     :    -0.000000
      h-4     :     0.000000
      h+5     :    -0.000000
      h-5     :     0.000000
  2 N s       :    -0.000000  s :    -0.000000
      pz      :     0.000000  p :     0.000000
      px      :     0.000000
      py      :     0.000000
      dz2     :     0.000000  d :    -0.000000
      dxz     :     0.000000
      dyz     :    -0.000000
      dx2y2   :    -0.000000
      dxy     :    -0.000000
      f0      :    -0.000000  f :     0.000000
      f+1     :     0.000000
      f-1     :     0.000000
      f+2     :    -0.000000
      f-2     :     0.000000
      f+3     :    -0.000000
      f-3     :     0.000000
      g0      :     0.000000  g :     0.000000
      g+1     :     0.000000
      g-1     :     0.000000
      g+2     :     0.000000
      g-2     :     0.000000
      g+3     :    -0.000000
      g-3     :     0.000000
      g+4     :    -0.000000
      g-4     :    -0.000000
      h0      :     0.000000  h :    -0.000000
      h+1     :     0.000000
      h-1     :    -0.000000
      h+2     :     0.000000
      h-2     :    -0.000000
      h+3     :     0.000000
      h-3     :    -0.000000
      h+4     :     0.000000
      h-4     :     0.000000
      h+5     :    -0.000000
      h-5     :    -0.000000


                      *****************************
                      * MAYER POPULATION ANALYSIS *
                      *****************************

  NA   - Mulliken gross atomic population
  ZA   - Total nuclear charge
  QA   - Mulliken gross atomic charge
  VA   - Mayer's total valence
  BVA  - Mayer's bonded valence
  FA   - Mayer's free valence

  ATOM       NA         ZA         QA         VA         BVA        FA
  0 Li     2.2982     3.0000     0.7018     0.4880     0.4880    -0.0000
  1 C      6.3880     6.0000    -0.3880     2.5911     2.5911     0.0000
  2 N      7.3138     7.0000    -0.3138     2.8198     2.8198    -0.0000

  Mayer bond orders larger than 0.1
B(  0-Li,  1-C ) :   0.1297 B(  0-Li,  2-N ) :   0.3583 B(  1-C ,  2-N ) :   2.4614 


-------
TIMINGS
-------

Total SCF time: 0 days 0 hours 13 min 8 sec 

Total time                  ....     788.210 sec
Sum of individual times     ....     787.480 sec  ( 99.9%)

Fock matrix formation       ....     784.402 sec  ( 99.5%)
  XC integration            ....      15.622 sec  (  2.0% of F)
    Basis function eval.    ....       0.962 sec  (  6.2% of XC)
    Density eval.           ....       2.849 sec  ( 18.2% of XC)
    XC-Functional eval.     ....       1.367 sec  (  8.8% of XC)
    XC-Potential eval.      ....       9.884 sec  ( 63.3% of XC)
Diagonalization             ....       1.204 sec  (  0.2%)
Density matrix formation    ....       0.019 sec  (  0.0%)
Population analysis         ....       0.115 sec  (  0.0%)
Initial guess               ....       0.703 sec  (  0.1%)
Orbital Transformation      ....       0.000 sec  (  0.0%)
Orbital Orthonormalization  ....       0.000 sec  (  0.0%)
DIIS solution               ....       0.673 sec  (  0.1%)
Grid generation             ....       0.365 sec  (  0.0%)

-------------------------   --------------------
FINAL SINGLE POINT ENERGY      -100.283905999974
-------------------------   --------------------


                            ***************************************
                            *     ORCA property calculations      *
                            ***************************************

                                    ---------------------
                                    Active property flags
                                    ---------------------
   (+) Dipole Moment


------------------------------------------------------------------------------
                       ORCA ELECTRIC PROPERTIES CALCULATION
------------------------------------------------------------------------------

Dipole Moment Calculation                       ... on
Quadrupole Moment Calculation                   ... off
Polarizability Calculation                      ... off
GBWName                                         ... licn_pbe_+0001_y.gbw
Electron density file                           ... licn_pbe_+0001_y.scfp.tmp
The origin for moment calculation is the CENTER OF MASS  = ( 0.079529, -0.023371  0.000000)

-------------
DIPOLE MOMENT
-------------
                                X             Y             Z
Electronic contribution:      3.72096      -1.46398      -0.00000
Nuclear contribution   :     -1.21344       0.53686       0.00000
                        -----------------------------------------
Total Dipole Moment    :      2.50752      -0.92712      -0.00000
                        -----------------------------------------
Magnitude (a.u.)       :      2.67342
Magnitude (Debye)      :      6.79530



--------------------
Rotational spectrum 
--------------------
 
Rotational constants in cm-1:     1.939920     0.831697     0.582124 
Rotational constants in MHz : 58157.349324 24933.635650 17451.642424 

 Dipole components along the rotational axes: 
x,y,z [a.u.] :    -2.666178    -0.196666    -0.000000 
x,y,z [Debye]:    -6.776885    -0.499884    -0.000000 

 

Timings for individual modules:

Sum of individual times         ...      790.118 sec (=  13.169 min)
GTO integral calculation        ...        1.617 sec (=   0.027 min)   0.2 %
SCF iterations                  ...      788.501 sec (=  13.142 min)  99.8 %
                             ****ORCA TERMINATED NORMALLY****
TOTAL RUN TIME: 0 days 0 hours 13 minutes 11 seconds 148 msec
