
                                 *****************
                                 * O   R   C   A *
                                 *****************

           --- An Ab Initio, DFT and Semiempirical electronic structure package ---

                  #######################################################
                  #                        -***-                        #
                  #          Department of theory and spectroscopy      #
                  #               Directorship: Frank Neese             #
                  #        Max Planck Institute fuer Kohlenforschung    #
                  #                Kaiser Wilhelm Platz 1               #
                  #                 D-45470 Muelheim/Ruhr               #
                  #                      Germany                        #
                  #                                                     #
                  #                  All rights reserved                #
                  #                        -***-                        #
                  #######################################################


                         Program Version 4.1.2  - RELEASE  -


 With contributions from (in alphabetic order):
   Daniel Aravena         : Magnetic Properties
   Michael Atanasov       : Ab Initio Ligand Field Theory
   Alexander A. Auer      : GIAO ZORA
   Ute Becker             : Parallelization
   Giovanni Bistoni       : ED, Open-shell LED
   Martin Brehm           : Molecular dynamics
   Dmytro Bykov           : SCF Hessian
   Vijay G. Chilkuri      : MRCI spin determinant printing
   Dipayan Datta          : RHF DLPNO-CCSD density
   Achintya Kumar Dutta   : EOM-CC, STEOM-CC
   Dmitry Ganyushin       : Spin-Orbit,Spin-Spin,Magnetic field MRCI
   Miquel Garcia          : C-PCM Hessian
   Yang Guo               : DLPNO-NEVPT2, CIM, IAO-localization
   Andreas Hansen         : Spin unrestricted coupled pair/coupled cluster methods
   Benjamin Helmich-Paris : CASSCF linear response (MC-RPA)
   Lee Huntington         : MR-EOM, pCC
   Robert Izsak           : Overlap fitted RIJCOSX, COSX-SCS-MP3, EOM
   Christian Kollmar      : KDIIS, OOCD, Brueckner-CCSD(T), CCSD density
   Simone Kossmann        : Meta GGA functionals, TD-DFT gradient, OOMP2, MP2 Hessian
   Martin Krupicka        : AUTO-CI
   Lucas Lang             : DCDCAS
   Dagmar Lenk            : GEPOL surface, SMD
   Dimitrios Liakos       : Extrapolation schemes; parallel MDCI
   Dimitrios Manganas     : ROCIS; embedding schemes
   Dimitrios Pantazis     : SARC Basis sets
   Taras Petrenko         : DFT Hessian,TD-DFT gradient, ASA, ECA, R-Raman, ABS, FL, XAS/XES, NRVS
   Peter Pinski           : DLPNO-MP2, DLPNO-MP2 Gradient
   Christoph Reimann      : Effective Core Potentials
   Marius Retegan         : Local ZFS, SOC
   Christoph Riplinger    : Optimizer, TS searches, QM/MM, DLPNO-CCSD(T), (RO)-DLPNO pert. Triples
   Tobias Risthaus        : Range-separated hybrids, TD-DFT gradient, RPA, STAB
   Michael Roemelt        : Restricted open shell CIS
   Masaaki Saitow         : Open-shell DLPNO
   Barbara Sandhoefer     : DKH picture change effects
   Avijit Sen             : IP-ROCIS
   Kantharuban Sivalingam : CASSCF convergence, NEVPT2, FIC-MRCI
   Bernardo de Souza      : ESD, SOC TD-DFT
   Georgi Stoychev        : AutoAux, RI-MP2 NMR
   Willem Van den Heuvel  : Paramagnetic NMR
   Boris Wezisla          : Elementary symmetry handling
   Frank Wennmohs         : Technical directorship


 We gratefully acknowledge several colleagues who have allowed us to
 interface, adapt or use parts of their codes:
   Stefan Grimme, W. Hujo, H. Kruse,             : VdW corrections, initial TS optimization,
                  C. Bannwarth                     DFT functionals, gCP, sTDA/sTD-DF
   Ed Valeev                                     : LibInt (2-el integral package), F12 methods
   Garnet Chan, S. Sharma, J. Yang, R. Olivares  : DMRG
   Ulf Ekstrom                                   : XCFun DFT Library
   Mihaly Kallay                                 : mrcc  (arbitrary order and MRCC methods)
   Andreas Klamt, Michael Diedenhofen            : otool_cosmo (COSMO solvation model)
   Jiri Pittner, Ondrej Demel                    : Mk-CCSD
   Frank Weinhold                                : gennbo (NPA and NBO analysis)
   Christopher J. Cramer and Donald G. Truhlar   : smd solvation model
   Lars Goerigk                                  : TD-DFT with DH, B97 family of functionals
   V. Asgeirsson, H. Jonsson                     : NEB implementation
   FAccTs GmbH                                   : IRC, NEB, NEB-TS, Multilevel


 Your calculation uses the libint2 library for the computation of 2-el integrals
 For citations please refer to: http://libint.valeyev.net

 This ORCA versions uses:
   CBLAS   interface :  Fast vector & matrix operations
   LAPACKE interface :  Fast linear algebra routines
   SCALAPACK package :  Parallel linear algebra routines


----- Orbital basis set information -----
Your calculation utilizes the basis: aug-pc-4
   H, C-F              : F. Jensen, J. Chem. Phys. 115, 9113 (2001).
                         F. Jensen, J. Chem. Phys. 116, 7372 (2002).
                         F. Jensen, J. Chem. Phys. 117, 9234 (2002).
   Si-Cl               : F. Jensen, T. Helgaker, J. Chem. Phys. 121, 3463 (2004).
   He-B, Ne-Mg, Al, Ar : F. Jensen, J. Phys. Chem. A 111, 11198 (2007).
   K, Ca, Ga-Kr        : F. Jensen, J. Chem. Phys. 136, 094110 (2012).
   Sc-Zn               : F. Jensen, J. Chem. Phys. 138, 014107 (2013).

================================================================================
                                        WARNINGS
                       Please study these warnings very carefully!
================================================================================


INFO   : the flag for use of LIBINT has been found!

================================================================================
                                       INPUT FILE
================================================================================
NAME = licn_pbe_-0001_y.inp
|  1> !uks pbe nori aug-pc-4 grid5 nofinalgrid verytightscf
|  2> 
|  3> %maxcore 6000
|  4> 
|  5> %pal nprocs 4 end
|  6> 
|  7> %scf
|  8> 	efield 0.0, -0.001, 0.0
|  9> 	maxiter 200
| 10> end
| 11> 
| 12> * xyz 0 1
| 13> Li 1.4157454937 -0.6164252897 0.0000000000
| 14> C -0.6780148225 -0.3855159545 0.0000000000
| 15> N -0.0211306712 0.6069412443 0.0000000000
| 16> *
| 17> 
| 18>                          ****END OF INPUT****
================================================================================

                       ****************************
                       * Single Point Calculation *
                       ****************************

---------------------------------
CARTESIAN COORDINATES (ANGSTROEM)
---------------------------------
  Li     1.415745   -0.616425    0.000000
  C     -0.678015   -0.385516    0.000000
  N     -0.021131    0.606941    0.000000

----------------------------
CARTESIAN COORDINATES (A.U.)
----------------------------
  NO LB      ZA    FRAG     MASS         X           Y           Z
   0 Li    3.0000    0     6.941    2.675371   -1.164875    0.000000
   1 C     6.0000    0    12.011   -1.281262   -0.728520    0.000000
   2 N     7.0000    0    14.007   -0.039931    1.146953    0.000000

--------------------------------
INTERNAL COORDINATES (ANGSTROEM)
--------------------------------
 Li     0   0   0     0.000000000000     0.00000000     0.00000000
 C      1   0   0     2.106454695164     0.00000000     0.00000000
 N      2   1   0     1.190154645279    62.79376329     0.00000000

---------------------------
INTERNAL COORDINATES (A.U.)
---------------------------
 Li     0   0   0     0.000000000000     0.00000000     0.00000000
 C      1   0   0     3.980622487372     0.00000000     0.00000000
 N      2   1   0     2.249066336591    62.79376329     0.00000000

---------------------
BASIS SET INFORMATION
---------------------
There are 3 groups of distinct atoms

 Group   1 Type Li  : 31s9p4d3f2g contracted to 9s5p4d3f2g pattern {12121111111/51111/1111/111/11}
 Group   2 Type C   : 28s12p7d4f3g2h contracted to 9s8p7d4f3g2h pattern {11101111111/51111111/1111111/1111/111/11}
 Group   3 Type N   : 27s12p7d4f3g2h contracted to 9s8p7d4f3g2h pattern {1191111111/51111111/1111111/1111/111/11}

Atom   0Li   basis set group =>   1
Atom   1C    basis set group =>   2
Atom   2N    basis set group =>   3


           ************************************************************
           *        Program running with 4 parallel MPI-processes     *
           *              working on a common directory               *
           ************************************************************
------------------------------------------------------------------------------
                           ORCA GTO INTEGRAL CALCULATION
------------------------------------------------------------------------------

                         BASIS SET STATISTICS AND STARTUP INFO

 # of primitive gaussian shells          ...  160
 # of primitive gaussian functions       ...  468
 # of contracted shells                  ...   89
 # of contracted basis functions         ...  373
 Highest angular momentum                ...    5
 Maximum contraction depth               ...   12
 Integral package used                   ... LIBINT
 Integral threshhold            Thresh   ...  1.000e-12
 Primitive cut-off              TCut     ...  1.000e-14


------------------------------ INTEGRAL EVALUATION ----------------------------


 * One electron integrals 
 Pre-screening matrix                    ... done
 Shell pair data                         ... done (   0.001 sec)


An Electric Field will be added: 0.000e+00 -1.000e-03 0.000e+00 au

  ... done adding electric field perturbation



           ************************************************************
           *        Program running with 4 parallel MPI-processes     *
           *              working on a common directory               *
           ************************************************************
-------------------------------------------------------------------------------
                                 ORCA SCF
-------------------------------------------------------------------------------

------------
SCF SETTINGS
------------
Hamiltonian:
 Density Functional     Method          .... DFT(GTOs)
 Exchange Functional    Exchange        .... PBE
   PBE kappa parameter   XKappa         ....  0.804000
   PBE mue parameter    XMuePBE         ....  0.219520
 Correlation Functional Correlation     .... PBE
   PBE beta parameter  CBetaPBE         ....  0.066725
 LDA part of GGA corr.  LDAOpt          .... PW91-LDA
 Gradients option       PostSCFGGA      .... off
   Density functional embedding theory  .... OFF
   NL short-range parameter             ....  6.400000


General Settings:
 Integral files         IntName         .... licn_pbe_-0001_y
 Hartree-Fock type      HFTyp           .... UHF
 Total Charge           Charge          ....    0
 Multiplicity           Mult            ....    1
 Number of Electrons    NEL             ....   16
 Basis Dimension        Dim             ....  373
 Nuclear Repulsion      ENuc            ....     29.0850277302 Eh

Convergence Acceleration:
 DIIS                   CNVDIIS         .... on
   Start iteration      DIISMaxIt       ....    12
   Startup error        DIISStart       ....  0.200000
   # of expansion vecs  DIISMaxEq       ....     5
   Bias factor          DIISBfac        ....   1.050
   Max. coefficient     DIISMaxC        ....  10.000
 Newton-Raphson         CNVNR           .... off
 SOSCF                  CNVSOSCF        .... off
 Level Shifting         CNVShift        .... on
   Level shift para.    LevelShift      ....    0.2500
   Turn off err/grad.   ShiftErr        ....    0.0010
 Zerner damping         CNVZerner       .... off
 Static damping         CNVDamp         .... on
   Fraction old density DampFac         ....    0.7000
   Max. Damping (<1)    DampMax         ....    0.9800
   Min. Damping (>=0)   DampMin         ....    0.0000
   Turn off err/grad.   DampErr         ....    0.1000
 Fernandez-Rico         CNVRico         .... off

SCF Procedure:
 Maximum # iterations   MaxIter         ....   200
 SCF integral mode      SCFMode         .... Direct
   Integral package                     .... LIBINT
 Reset frequency        DirectResetFreq ....    20
 Integral Threshold     Thresh          ....  1.000e-12 Eh
 Primitive CutOff       TCut            ....  1.000e-14 Eh

Convergence Tolerance:
 Convergence Check Mode ConvCheckMode   .... Total+1el-Energy
 Convergence forced     ConvForced      .... 0
 Energy Change          TolE            ....  1.000e-09 Eh
 1-El. energy change                    ....  1.000e-06 Eh
 DIIS Error             TolErr          ....  1.000e-08


Diagonalization of the overlap matrix:
Smallest eigenvalue                        ... 8.815e-07
Time for diagonalization                   ...    0.025 sec
Threshold for overlap eigenvalues          ... 1.000e-08
Number of eigenvalues below threshold      ... 0
Time for construction of square roots      ...    0.018 sec
Total time needed                          ...    0.044 sec

-------------------
DFT GRID GENERATION
-------------------

General Integration Accuracy     IntAcc      ...  5.010
Radial Grid Type                 RadialGrid  ... Gauss-Chebyshev
Angular Grid (max. acc.)         AngularGrid ... Lebedev-434
Angular grid pruning method      GridPruning ... 3 (G Style)
Weight generation scheme         WeightScheme... Becke
Basis function cutoff            BFCut       ...    1.0000e-12
Integration weight cutoff        WCut        ...    1.0000e-14
Grids for H and He will be reduced by one unit

# of grid points (after initial pruning)     ...  31650 (   0.0 sec)
# of grid points (after weights+screening)   ...  31407 (   0.0 sec)
nearest neighbour list constructed           ...    0.0 sec
Grid point re-assignment to atoms done       ...    0.0 sec
Grid point division into batches done        ...    0.2 sec
Reduced shell lists constructed in    0.3 sec

Total number of grid points                  ...    31407
Total number of batches                      ...      493
Average number of points per batch           ...       63
Average number of grid points per atom       ...    10469
Average number of shells per batch           ...    54.05 (60.73%)
Average number of basis functions per batch  ...   225.47 (60.45%)
Average number of large shells per batch     ...    46.73 (86.46%)
Average number of large basis fcns per batch ...   194.68 (86.34%)
Maximum spatial batch extension              ...  30.30, 32.58, 32.58 au
Average spatial batch extension              ...   1.55,  1.67,  1.66 au

Time for grid setup =    0.366 sec

------------------------------
INITIAL GUESS: MODEL POTENTIAL
------------------------------
Loading Hartree-Fock densities                     ... done
Calculating cut-offs                               ... done
Setting up the integral package                    ... done
Initializing the effective Hamiltonian             ... done
Starting the Coulomb interaction                   ... done (   0.0 sec)
Reading the grid                                   ... done
Mapping shells                                     ... done
Starting the XC term evaluation                    ... done (   0.5 sec)
  promolecular density results
     # of electrons  =     15.999997333
     EX              =    -13.283770326
     EC              =     -0.463352887
     EX+EC           =    -13.747123213
Transforming the Hamiltonian                       ... done (   0.0 sec)
Diagonalizing the Hamiltonian                      ... done (   0.0 sec)
Back transforming the eigenvectors                 ... done (   0.0 sec)
Now organizing SCF variables                       ... done
                      ------------------
                      INITIAL GUESS DONE (   1.0 sec)
                      ------------------
--------------
SCF ITERATIONS
--------------
ITER       Energy         Delta-E        Max-DP      RMS-DP      [F,P]     Damp
               ***  Starting incremental Fock matrix formation  ***
  0   -100.1652583233   0.000000000000 0.02066685  0.00021384  0.2784608 0.7000
  1   -100.2278672868  -0.062608963510 0.02117685  0.00016553  0.0933936 0.7000
                               ***Turning on DIIS***
  2   -100.2443695873  -0.016502300523 0.03184156  0.00028933  0.0425681 0.0000
  3   -100.2772865341  -0.032916946743 0.01681026  0.00011875  0.0445528 0.0000
  4   -100.2832656954  -0.005979161282 0.00486841  0.00003982  0.0414293 0.0000
  5   -100.2855897063  -0.002324010927 0.00281039  0.00002287  0.0119994 0.0000
  6   -100.2857979667  -0.000208260406 0.00182081  0.00001198  0.0027172 0.0000
  7   -100.2858132610  -0.000015294277 0.00132209  0.00000899  0.0007592 0.0000
  8   -100.2858164916  -0.000003230582 0.00020747  0.00000150  0.0001696 0.0000
  9   -100.2858165509  -0.000000059305 0.00002214  0.00000032  0.0001306 0.0000
 10   -100.2858165789  -0.000000028013 0.00000696  0.00000006  0.0000206 0.0000
 11   -100.2858165798  -0.000000000947 0.00000302  0.00000003  0.0000045 0.0000
 12   -100.2858165799  -0.000000000111 0.00000317  0.00000003  0.0000011 0.0000
                 **** Energy Check signals convergence ****

               *****************************************************
               *                     SUCCESS                       *
               *           SCF CONVERGED AFTER  13 CYCLES          *
               *****************************************************


----------------
TOTAL SCF ENERGY
----------------

Total Energy       :         -100.28581658 Eh           -2728.91580 eV

Components:
Nuclear Repulsion  :           29.08502773 Eh             791.44384 eV
Electronic Energy  :         -129.37084431 Eh           -3520.35965 eV
One Electron Energy:         -193.48405368 Eh           -5264.96877 eV
Two Electron Energy:           64.11320937 Eh            1744.60912 eV

Virial components:
Potential Energy   :         -200.12682148 Eh           -5445.72767 eV
Kinetic Energy     :           99.84100490 Eh            2716.81186 eV
Virial Ratio       :            2.00445520


DFT components:
N(Alpha)           :        7.999997413927 electrons
N(Beta)            :        7.999997413927 electrons
N(Total)           :       15.999994827854 electrons
E(X)               :      -13.532959242738 Eh       
E(C)               :       -0.482164006538 Eh       
E(XC)              :      -14.015123249277 Eh       
DFET-embed. en.    :        0.000000000000 Eh       

---------------
SCF CONVERGENCE
---------------

  Last Energy change         ...   -3.6380e-12  Tolerance :   1.0000e-09
  Last MAX-Density change    ...    1.4861e-06  Tolerance :   1.0000e-08
  Last RMS-Density change    ...    2.1216e-08  Tolerance :   1.0000e-09
  Last DIIS Error            ...    3.6974e-07  Tolerance :   1.0000e-08

             **** THE GBW FILE WAS UPDATED (licn_pbe_-0001_y.gbw) ****
             **** DENSITY FILE WAS UPDATED (licn_pbe_-0001_y.scfp.tmp) ****
             **** ENERGY FILE WAS UPDATED (licn_pbe_-0001_y.en.tmp) ****
----------------------
UHF SPIN CONTAMINATION
----------------------

Warning: in a DFT calculation there is little theoretical justification to 
         calculate <S**2> as in Hartree-Fock theory. We will do it anyways
         but you should keep in mind that the values have only limited relevance

Expectation value of <S**2>     :     0.000000
Ideal value S*(S+1) for S=0.0   :     0.000000
Deviation                       :     0.000000

----------------
ORBITAL ENERGIES
----------------
                 SPIN UP ORBITALS
  NO   OCC          E(Eh)            E(eV) 
   0   1.0000     -13.939546      -379.3143 
   1   1.0000      -9.860659      -268.3222 
   2   1.0000      -1.911613       -52.0176 
   3   1.0000      -0.778487       -21.1837 
   4   1.0000      -0.342986        -9.3331 
   5   1.0000      -0.288309        -7.8453 
   6   1.0000      -0.269423        -7.3314 
   7   1.0000      -0.215765        -5.8713 
   8   0.0000      -0.064720        -1.7611 
   9   0.0000      -0.027593        -0.7508 
  10   0.0000      -0.008319        -0.2264 
  11   0.0000       0.001422         0.0387 
  12   0.0000       0.010798         0.2938 
  13   0.0000       0.014170         0.3856 
  14   0.0000       0.018887         0.5139 
  15   0.0000       0.020747         0.5646 
  16   0.0000       0.028369         0.7720 
  17   0.0000       0.036169         0.9842 
  18   0.0000       0.037859         1.0302 
  19   0.0000       0.042323         1.1517 
  20   0.0000       0.043485         1.1833 
  21   0.0000       0.044722         1.2169 
  22   0.0000       0.047036         1.2799 
  23   0.0000       0.055152         1.5008 
  24   0.0000       0.066834         1.8186 
  25   0.0000       0.067823         1.8456 
  26   0.0000       0.072300         1.9674 
  27   0.0000       0.075730         2.0607 
  28   0.0000       0.079260         2.1568 
  29   0.0000       0.084364         2.2957 
  30   0.0000       0.089746         2.4421 
  31   0.0000       0.095707         2.6043 
  32   0.0000       0.099200         2.6994 
  33   0.0000       0.099203         2.6995 
  34   0.0000       0.105970         2.8836 
  35   0.0000       0.108856         2.9621 
  36   0.0000       0.114792         3.1236 
  37   0.0000       0.118232         3.2173 
  38   0.0000       0.128257         3.4900 
  39   0.0000       0.134062         3.6480 
  40   0.0000       0.136774         3.7218 
  41   0.0000       0.140039         3.8107 
  42   0.0000       0.142048         3.8653 
  43   0.0000       0.152709         4.1554 
  44   0.0000       0.159153         4.3308 
  45   0.0000       0.159513         4.3406 
  46   0.0000       0.161325         4.3899 
  47   0.0000       0.163117         4.4386 
  48   0.0000       0.165182         4.4948 
  49   0.0000       0.165906         4.5145 
  50   0.0000       0.168745         4.5918 
  51   0.0000       0.172364         4.6903 
  52   0.0000       0.178585         4.8595 
  53   0.0000       0.181090         4.9277 
  54   0.0000       0.185376         5.0443 
  55   0.0000       0.196151         5.3375 
  56   0.0000       0.202265         5.5039 
  57   0.0000       0.207080         5.6349 
  58   0.0000       0.209894         5.7115 
  59   0.0000       0.217728         5.9247 
  60   0.0000       0.229560         6.2466 
  61   0.0000       0.237560         6.4643 
  62   0.0000       0.256070         6.9680 
  63   0.0000       0.265999         7.2382 
  64   0.0000       0.268189         7.2978 
  65   0.0000       0.269767         7.3407 
  66   0.0000       0.272588         7.4175 
  67   0.0000       0.281963         7.6726 
  68   0.0000       0.282159         7.6779 
  69   0.0000       0.290670         7.9095 
  70   0.0000       0.297782         8.1031 
  71   0.0000       0.305690         8.3182 
  72   0.0000       0.310457         8.4480 
  73   0.0000       0.321139         8.7386 
  74   0.0000       0.330138         8.9835 
  75   0.0000       0.333960         9.0875 
  76   0.0000       0.338425         9.2090 
  77   0.0000       0.343730         9.3534 
  78   0.0000       0.356484         9.7004 
  79   0.0000       0.372606        10.1391 
  80   0.0000       0.379309        10.3215 
  81   0.0000       0.383987        10.4488 
  82   0.0000       0.387648        10.5484 
  83   0.0000       0.399593        10.8735 
  84   0.0000       0.400429        10.8962 
  85   0.0000       0.409988        11.1563 
  86   0.0000       0.420204        11.4343 
  87   0.0000       0.424242        11.5442 
  88   0.0000       0.429857        11.6970 
  89   0.0000       0.435632        11.8542 
  90   0.0000       0.447740        12.1836 
  91   0.0000       0.462472        12.5845 
  92   0.0000       0.474136        12.9019 
  93   0.0000       0.474828        12.9207 
  94   0.0000       0.490138        13.3373 
  95   0.0000       0.497980        13.5507 
  96   0.0000       0.506136        13.7727 
  97   0.0000       0.522367        14.2143 
  98   0.0000       0.535001        14.5581 
  99   0.0000       0.536417        14.5967 
 100   0.0000       0.538495        14.6532 
 101   0.0000       0.556897        15.1539 
 102   0.0000       0.564715        15.3667 
 103   0.0000       0.576268        15.6811 
 104   0.0000       0.577112        15.7040 
 105   0.0000       0.580735        15.8026 
 106   0.0000       0.592508        16.1230 
 107   0.0000       0.593663        16.1544 
 108   0.0000       0.613266        16.6878 
 109   0.0000       0.617606        16.8059 
 110   0.0000       0.626233        17.0407 
 111   0.0000       0.629802        17.1378 
 112   0.0000       0.634691        17.2708 
 113   0.0000       0.644935        17.5496 
 114   0.0000       0.652498        17.7554 
 115   0.0000       0.660146        17.9635 
 116   0.0000       0.667190        18.1552 
 117   0.0000       0.672181        18.2910 
 118   0.0000       0.678425        18.4609 
 119   0.0000       0.684687        18.6313 
 120   0.0000       0.686142        18.6709 
 121   0.0000       0.691766        18.8239 
 122   0.0000       0.691813        18.8252 
 123   0.0000       0.708707        19.2849 
 124   0.0000       0.735705        20.0196 
 125   0.0000       0.736175        20.0323 
 126   0.0000       0.761286        20.7156 
 127   0.0000       0.778307        21.1788 
 128   0.0000       0.790475        21.5099 
 129   0.0000       0.794413        21.6171 
 130   0.0000       0.795250        21.6399 
 131   0.0000       0.822286        22.3755 
 132   0.0000       0.835927        22.7467 
 133   0.0000       0.838891        22.8274 
 134   0.0000       0.842944        22.9377 
 135   0.0000       0.857633        23.3374 
 136   0.0000       0.874441        23.7947 
 137   0.0000       0.900275        24.4977 
 138   0.0000       0.908165        24.7124 
 139   0.0000       0.915042        24.8996 
 140   0.0000       0.923872        25.1398 
 141   0.0000       0.937471        25.5099 
 142   0.0000       0.944324        25.6964 
 143   0.0000       0.956790        26.0356 
 144   0.0000       0.965243        26.2656 
 145   0.0000       0.977799        26.6073 
 146   0.0000       0.996470        27.1153 
 147   0.0000       0.999822        27.2065 
 148   0.0000       1.011906        27.5354 
 149   0.0000       1.032337        28.0913 
 150   0.0000       1.035901        28.1883 
 151   0.0000       1.051507        28.6129 
 152   0.0000       1.056724        28.7549 
 153   0.0000       1.061305        28.8796 
 154   0.0000       1.092616        29.7316 
 155   0.0000       1.095238        29.8029 
 156   0.0000       1.095748        29.8168 
 157   0.0000       1.110931        30.2300 
 158   0.0000       1.133437        30.8424 
 159   0.0000       1.160326        31.5741 
 160   0.0000       1.164270        31.6814 
 161   0.0000       1.191914        32.4336 
 162   0.0000       1.199881        32.6504 
 163   0.0000       1.210487        32.9390 
 164   0.0000       1.245205        33.8837 
 165   0.0000       1.255545        34.1651 
 166   0.0000       1.260124        34.2897 
 167   0.0000       1.300591        35.3909 
 168   0.0000       1.340130        36.4668 
 169   0.0000       1.355003        36.8715 
 170   0.0000       1.406730        38.2791 
 171   0.0000       1.471109        40.0309 
 172   0.0000       1.485021        40.4095 
 173   0.0000       1.526074        41.5266 
 174   0.0000       1.571637        42.7664 
 175   0.0000       1.578411        42.9508 
 176   0.0000       1.616371        43.9837 
 177   0.0000       1.619491        44.0686 
 178   0.0000       1.654769        45.0285 
 179   0.0000       1.697484        46.1909 
 180   0.0000       1.755462        47.7686 
 181   0.0000       1.786453        48.6119 
 182   0.0000       1.805370        49.1266 
 183   0.0000       1.837601        50.0037 
 184   0.0000       1.867357        50.8134 
 185   0.0000       1.961243        53.3681 
 186   0.0000       1.996618        54.3307 
 187   0.0000       2.064268        56.1716 
 188   0.0000       2.090568        56.8872 
 189   0.0000       2.101785        57.1925 
 190   0.0000       2.122419        57.7539 
 191   0.0000       2.171031        59.0768 
 192   0.0000       2.192874        59.6711 
 193   0.0000       2.193418        59.6859 
 194   0.0000       2.220424        60.4208 
 195   0.0000       2.222456        60.4761 
 196   0.0000       2.276487        61.9464 
 197   0.0000       2.306590        62.7655 
 198   0.0000       2.346084        63.8402 
 199   0.0000       2.410803        65.6013 
 200   0.0000       2.459968        66.9391 
 201   0.0000       2.475705        67.3674 
 202   0.0000       2.493950        67.8638 
 203   0.0000       2.547349        69.3169 
 204   0.0000       2.556324        69.5611 
 205   0.0000       2.612652        71.0939 
 206   0.0000       2.614357        71.1403 
 207   0.0000       2.686279        73.0974 
 208   0.0000       2.700459        73.4832 
 209   0.0000       2.739600        74.5483 
 210   0.0000       2.749599        74.8204 
 211   0.0000       2.754048        74.9415 
 212   0.0000       2.830025        77.0089 
 213   0.0000       2.886879        78.5560 
 214   0.0000       2.917037        79.3766 
 215   0.0000       3.001864        81.6849 
 216   0.0000       3.036797        82.6354 
 217   0.0000       3.067920        83.4824 
 218   0.0000       3.073357        83.6303 
 219   0.0000       3.078043        83.7578 
 220   0.0000       3.118100        84.8478 
 221   0.0000       3.180803        86.5540 
 222   0.0000       3.199665        87.0673 
 223   0.0000       3.248249        88.3894 
 224   0.0000       3.324162        90.4550 
 225   0.0000       3.348501        91.1173 
 226   0.0000       3.449159        93.8564 
 227   0.0000       3.469561        94.4115 
 228   0.0000       3.544671        96.4554 
 229   0.0000       3.788658       103.0946 
 230   0.0000       3.855246       104.9066 
 231   0.0000       4.055391       110.3528 
 232   0.0000       4.126362       112.2840 
 233   0.0000       4.173268       113.5604 
 234   0.0000       4.183635       113.8425 
 235   0.0000       4.238584       115.3377 
 236   0.0000       4.253282       115.7377 
 237   0.0000       4.355752       118.5260 
 238   0.0000       4.438706       120.7833 
 239   0.0000       4.537235       123.4644 
 240   0.0000       4.550801       123.8336 
 241   0.0000       4.603404       125.2650 
 242   0.0000       4.617486       125.6482 
 243   0.0000       4.748931       129.2250 
 244   0.0000       4.768346       129.7533 
 245   0.0000       4.804997       130.7506 
 246   0.0000       4.831833       131.4809 
 247   0.0000       4.847213       131.8994 
 248   0.0000       4.872563       132.5892 
 249   0.0000       4.901976       133.3896 
 250   0.0000       4.965237       135.1110 
 251   0.0000       5.053663       137.5172 
 252   0.0000       5.139343       139.8486 
 253   0.0000       5.240443       142.5997 
 254   0.0000       5.256532       143.0375 
 255   0.0000       5.271059       143.4328 
 256   0.0000       5.328282       144.9899 
 257   0.0000       5.343633       145.4076 
 258   0.0000       5.407917       147.1569 
 259   0.0000       5.438076       147.9776 
 260   0.0000       5.543554       150.8478 
 261   0.0000       5.659550       154.0042 
 262   0.0000       5.668285       154.2419 
 263   0.0000       5.833125       158.7274 
 264   0.0000       5.924040       161.2013 
 265   0.0000       6.034277       164.2010 
 266   0.0000       6.044203       164.4711 
 267   0.0000       6.094224       165.8323 
 268   0.0000       6.276484       170.7918 
 269   0.0000       6.317937       171.9198 
 270   0.0000       6.414196       174.5391 
 271   0.0000       6.508321       177.1004 
 272   0.0000       6.655568       181.1072 
 273   0.0000       6.657643       181.1637 
 274   0.0000       6.815205       185.4512 
 275   0.0000       6.833668       185.9536 
 276   0.0000       6.905083       187.8969 
 277   0.0000       7.070526       192.3988 
 278   0.0000       7.102511       193.2691 
 279   0.0000       7.329560       199.4475 
 280   0.0000       7.858605       213.8435 
 281   0.0000       8.127707       221.1661 
 282   0.0000       8.270058       225.0397 
 283   0.0000       8.334425       226.7912 
 284   0.0000       9.175727       249.6842 
 285   0.0000       9.438017       256.8215 
 286   0.0000       9.782568       266.1972 
 287   0.0000      10.174474       276.8615 
 288   0.0000      10.189370       277.2668 
 289   0.0000      10.233396       278.4649 
 290   0.0000      10.274928       279.5950 
 291   0.0000      10.342861       281.4436 
 292   0.0000      10.431974       283.8684 
 293   0.0000      10.432550       283.8841 
 294   0.0000      10.448351       284.3141 
 295   0.0000      10.523609       286.3619 
 296   0.0000      10.626087       289.1505 
 297   0.0000      10.632471       289.3243 
 298   0.0000      10.735891       292.1385 
 299   0.0000      10.842170       295.0305 
 300   0.0000      10.844911       295.1050 
 301   0.0000      10.895967       296.4943 
 302   0.0000      11.051122       300.7163 
 303   0.0000      11.091027       301.8022 
 304   0.0000      11.386409       309.8399 
 305   0.0000      11.475898       312.2751 
 306   0.0000      11.483427       312.4799 
 307   0.0000      11.508402       313.1596 
 308   0.0000      11.526365       313.6483 
 309   0.0000      11.569735       314.8285 
 310   0.0000      11.577650       315.0439 
 311   0.0000      11.584999       315.2439 
 312   0.0000      11.632335       316.5319 
 313   0.0000      11.668377       317.5127 
 314   0.0000      11.722351       318.9814 
 315   0.0000      11.723742       319.0192 
 316   0.0000      11.836118       322.0772 
 317   0.0000      11.915478       324.2366 
 318   0.0000      11.950323       325.1848 
 319   0.0000      12.098928       329.2286 
 320   0.0000      12.123203       329.8891 
 321   0.0000      12.125284       329.9458 
 322   0.0000      12.269901       333.8810 
 323   0.0000      12.459345       339.0360 
 324   0.0000      12.507759       340.3534 
 325   0.0000      12.652010       344.2787 
 326   0.0000      12.725571       346.2804 
 327   0.0000      12.846881       349.5814 
 328   0.0000      12.964748       352.7887 
 329   0.0000      12.970400       352.9425 
 330   0.0000      13.537267       368.3678 
 331   0.0000      13.705274       372.9395 
 332   0.0000      13.768939       374.6719 
 333   0.0000      14.528375       395.3372 
 334   0.0000      14.561422       396.2364 
 335   0.0000      14.645886       398.5348 
 336   0.0000      14.751704       401.4143 
 337   0.0000      14.761651       401.6849 
 338   0.0000      15.005183       408.3118 
 339   0.0000      15.063119       409.8883 
 340   0.0000      15.374452       418.3601 
 341   0.0000      15.431676       419.9173 
 342   0.0000      15.593869       424.3307 
 343   0.0000      15.810143       430.2159 
 344   0.0000      15.890741       432.4091 
 345   0.0000      16.020685       435.9450 
 346   0.0000      16.728575       455.2077 
 347   0.0000      16.888714       459.5653 
 348   0.0000      16.971029       461.8052 
 349   0.0000      17.141477       466.4433 
 350   0.0000      17.685519       481.2474 
 351   0.0000      17.728005       482.4035 
 352   0.0000      17.771466       483.5862 
 353   0.0000      18.652668       507.5649 
 354   0.0000      19.070582       518.9369 
 355   0.0000      19.119396       520.2652 
 356   0.0000      21.469612       584.2178 
 357   0.0000      24.013187       653.4320 
 358   0.0000      26.138290       711.2590 
 359   0.0000      26.414033       718.7624 
 360   0.0000      27.945261       760.4292 
 361   0.0000      31.962704       869.7494 
 362   0.0000      32.051146       872.1560 
 363   0.0000      32.896098       895.1483 
 364   0.0000      32.914192       895.6407 
 365   0.0000      34.427604       936.8227 
 366   0.0000      47.761676      1299.6613 
 367   0.0000      47.882840      1302.9583 
 368   0.0000      48.013756      1306.5207 
 369   0.0000      48.069573      1308.0396 
 370   0.0000      48.952235      1332.0580 
 371   0.0000      74.272659      2021.0618 
 372   0.0000     104.191545      2835.1961 

                 SPIN DOWN ORBITALS
  NO   OCC          E(Eh)            E(eV) 
   0   1.0000     -13.939546      -379.3143 
   1   1.0000      -9.860659      -268.3222 
   2   1.0000      -1.911613       -52.0176 
   3   1.0000      -0.778487       -21.1837 
   4   1.0000      -0.342986        -9.3331 
   5   1.0000      -0.288309        -7.8453 
   6   1.0000      -0.269423        -7.3314 
   7   1.0000      -0.215765        -5.8713 
   8   0.0000      -0.064720        -1.7611 
   9   0.0000      -0.027593        -0.7508 
  10   0.0000      -0.008319        -0.2264 
  11   0.0000       0.001422         0.0387 
  12   0.0000       0.010798         0.2938 
  13   0.0000       0.014170         0.3856 
  14   0.0000       0.018887         0.5139 
  15   0.0000       0.020747         0.5646 
  16   0.0000       0.028369         0.7720 
  17   0.0000       0.036169         0.9842 
  18   0.0000       0.037859         1.0302 
  19   0.0000       0.042323         1.1517 
  20   0.0000       0.043485         1.1833 
  21   0.0000       0.044722         1.2169 
  22   0.0000       0.047036         1.2799 
  23   0.0000       0.055152         1.5008 
  24   0.0000       0.066834         1.8186 
  25   0.0000       0.067823         1.8456 
  26   0.0000       0.072300         1.9674 
  27   0.0000       0.075730         2.0607 
  28   0.0000       0.079260         2.1568 
  29   0.0000       0.084364         2.2957 
  30   0.0000       0.089746         2.4421 
  31   0.0000       0.095707         2.6043 
  32   0.0000       0.099200         2.6994 
  33   0.0000       0.099203         2.6995 
  34   0.0000       0.105970         2.8836 
  35   0.0000       0.108856         2.9621 
  36   0.0000       0.114792         3.1236 
  37   0.0000       0.118232         3.2173 
  38   0.0000       0.128257         3.4900 
  39   0.0000       0.134062         3.6480 
  40   0.0000       0.136774         3.7218 
  41   0.0000       0.140039         3.8107 
  42   0.0000       0.142048         3.8653 
  43   0.0000       0.152709         4.1554 
  44   0.0000       0.159153         4.3308 
  45   0.0000       0.159513         4.3406 
  46   0.0000       0.161325         4.3899 
  47   0.0000       0.163117         4.4386 
  48   0.0000       0.165182         4.4948 
  49   0.0000       0.165906         4.5145 
  50   0.0000       0.168745         4.5918 
  51   0.0000       0.172364         4.6903 
  52   0.0000       0.178585         4.8595 
  53   0.0000       0.181090         4.9277 
  54   0.0000       0.185376         5.0443 
  55   0.0000       0.196151         5.3375 
  56   0.0000       0.202265         5.5039 
  57   0.0000       0.207080         5.6349 
  58   0.0000       0.209894         5.7115 
  59   0.0000       0.217728         5.9247 
  60   0.0000       0.229560         6.2466 
  61   0.0000       0.237560         6.4643 
  62   0.0000       0.256070         6.9680 
  63   0.0000       0.265999         7.2382 
  64   0.0000       0.268189         7.2978 
  65   0.0000       0.269767         7.3407 
  66   0.0000       0.272588         7.4175 
  67   0.0000       0.281963         7.6726 
  68   0.0000       0.282159         7.6779 
  69   0.0000       0.290670         7.9095 
  70   0.0000       0.297782         8.1031 
  71   0.0000       0.305690         8.3182 
  72   0.0000       0.310457         8.4480 
  73   0.0000       0.321139         8.7386 
  74   0.0000       0.330138         8.9835 
  75   0.0000       0.333960         9.0875 
  76   0.0000       0.338425         9.2090 
  77   0.0000       0.343730         9.3534 
  78   0.0000       0.356484         9.7004 
  79   0.0000       0.372606        10.1391 
  80   0.0000       0.379309        10.3215 
  81   0.0000       0.383987        10.4488 
  82   0.0000       0.387648        10.5484 
  83   0.0000       0.399593        10.8735 
  84   0.0000       0.400429        10.8962 
  85   0.0000       0.409988        11.1563 
  86   0.0000       0.420204        11.4343 
  87   0.0000       0.424242        11.5442 
  88   0.0000       0.429857        11.6970 
  89   0.0000       0.435632        11.8542 
  90   0.0000       0.447740        12.1836 
  91   0.0000       0.462472        12.5845 
  92   0.0000       0.474136        12.9019 
  93   0.0000       0.474828        12.9207 
  94   0.0000       0.490138        13.3373 
  95   0.0000       0.497980        13.5507 
  96   0.0000       0.506136        13.7727 
  97   0.0000       0.522367        14.2143 
  98   0.0000       0.535001        14.5581 
  99   0.0000       0.536417        14.5967 
 100   0.0000       0.538495        14.6532 
 101   0.0000       0.556897        15.1539 
 102   0.0000       0.564715        15.3667 
 103   0.0000       0.576268        15.6811 
 104   0.0000       0.577112        15.7040 
 105   0.0000       0.580735        15.8026 
 106   0.0000       0.592508        16.1230 
 107   0.0000       0.593663        16.1544 
 108   0.0000       0.613266        16.6878 
 109   0.0000       0.617606        16.8059 
 110   0.0000       0.626233        17.0407 
 111   0.0000       0.629802        17.1378 
 112   0.0000       0.634691        17.2708 
 113   0.0000       0.644935        17.5496 
 114   0.0000       0.652498        17.7554 
 115   0.0000       0.660146        17.9635 
 116   0.0000       0.667190        18.1552 
 117   0.0000       0.672181        18.2910 
 118   0.0000       0.678425        18.4609 
 119   0.0000       0.684687        18.6313 
 120   0.0000       0.686142        18.6709 
 121   0.0000       0.691766        18.8239 
 122   0.0000       0.691813        18.8252 
 123   0.0000       0.708707        19.2849 
 124   0.0000       0.735705        20.0196 
 125   0.0000       0.736175        20.0323 
 126   0.0000       0.761286        20.7156 
 127   0.0000       0.778307        21.1788 
 128   0.0000       0.790475        21.5099 
 129   0.0000       0.794413        21.6171 
 130   0.0000       0.795250        21.6399 
 131   0.0000       0.822286        22.3755 
 132   0.0000       0.835927        22.7467 
 133   0.0000       0.838891        22.8274 
 134   0.0000       0.842944        22.9377 
 135   0.0000       0.857633        23.3374 
 136   0.0000       0.874441        23.7947 
 137   0.0000       0.900275        24.4977 
 138   0.0000       0.908165        24.7124 
 139   0.0000       0.915042        24.8996 
 140   0.0000       0.923872        25.1398 
 141   0.0000       0.937471        25.5099 
 142   0.0000       0.944324        25.6964 
 143   0.0000       0.956790        26.0356 
 144   0.0000       0.965243        26.2656 
 145   0.0000       0.977799        26.6073 
 146   0.0000       0.996470        27.1153 
 147   0.0000       0.999822        27.2065 
 148   0.0000       1.011906        27.5354 
 149   0.0000       1.032337        28.0913 
 150   0.0000       1.035901        28.1883 
 151   0.0000       1.051507        28.6129 
 152   0.0000       1.056724        28.7549 
 153   0.0000       1.061305        28.8796 
 154   0.0000       1.092616        29.7316 
 155   0.0000       1.095238        29.8029 
 156   0.0000       1.095748        29.8168 
 157   0.0000       1.110931        30.2300 
 158   0.0000       1.133437        30.8424 
 159   0.0000       1.160326        31.5741 
 160   0.0000       1.164270        31.6814 
 161   0.0000       1.191914        32.4336 
 162   0.0000       1.199881        32.6504 
 163   0.0000       1.210487        32.9390 
 164   0.0000       1.245205        33.8837 
 165   0.0000       1.255545        34.1651 
 166   0.0000       1.260124        34.2897 
 167   0.0000       1.300591        35.3909 
 168   0.0000       1.340130        36.4668 
 169   0.0000       1.355003        36.8715 
 170   0.0000       1.406730        38.2791 
 171   0.0000       1.471109        40.0309 
 172   0.0000       1.485021        40.4095 
 173   0.0000       1.526074        41.5266 
 174   0.0000       1.571637        42.7664 
 175   0.0000       1.578411        42.9508 
 176   0.0000       1.616371        43.9837 
 177   0.0000       1.619491        44.0686 
 178   0.0000       1.654769        45.0285 
 179   0.0000       1.697484        46.1909 
 180   0.0000       1.755462        47.7686 
 181   0.0000       1.786453        48.6119 
 182   0.0000       1.805370        49.1266 
 183   0.0000       1.837601        50.0037 
 184   0.0000       1.867357        50.8134 
 185   0.0000       1.961243        53.3681 
 186   0.0000       1.996618        54.3307 
 187   0.0000       2.064268        56.1716 
 188   0.0000       2.090568        56.8872 
 189   0.0000       2.101785        57.1925 
 190   0.0000       2.122419        57.7539 
 191   0.0000       2.171031        59.0768 
 192   0.0000       2.192874        59.6711 
 193   0.0000       2.193418        59.6859 
 194   0.0000       2.220424        60.4208 
 195   0.0000       2.222456        60.4761 
 196   0.0000       2.276487        61.9464 
 197   0.0000       2.306590        62.7655 
 198   0.0000       2.346084        63.8402 
 199   0.0000       2.410803        65.6013 
 200   0.0000       2.459968        66.9391 
 201   0.0000       2.475705        67.3674 
 202   0.0000       2.493950        67.8638 
 203   0.0000       2.547349        69.3169 
 204   0.0000       2.556324        69.5611 
 205   0.0000       2.612652        71.0939 
 206   0.0000       2.614357        71.1403 
 207   0.0000       2.686279        73.0974 
 208   0.0000       2.700459        73.4832 
 209   0.0000       2.739600        74.5483 
 210   0.0000       2.749599        74.8204 
 211   0.0000       2.754048        74.9415 
 212   0.0000       2.830025        77.0089 
 213   0.0000       2.886879        78.5560 
 214   0.0000       2.917037        79.3766 
 215   0.0000       3.001864        81.6849 
 216   0.0000       3.036797        82.6354 
 217   0.0000       3.067920        83.4824 
 218   0.0000       3.073357        83.6303 
 219   0.0000       3.078043        83.7578 
 220   0.0000       3.118100        84.8478 
 221   0.0000       3.180803        86.5540 
 222   0.0000       3.199665        87.0673 
 223   0.0000       3.248249        88.3894 
 224   0.0000       3.324162        90.4550 
 225   0.0000       3.348501        91.1173 
 226   0.0000       3.449159        93.8564 
 227   0.0000       3.469561        94.4115 
 228   0.0000       3.544671        96.4554 
 229   0.0000       3.788658       103.0946 
 230   0.0000       3.855246       104.9066 
 231   0.0000       4.055391       110.3528 
 232   0.0000       4.126362       112.2840 
 233   0.0000       4.173268       113.5604 
 234   0.0000       4.183635       113.8425 
 235   0.0000       4.238584       115.3377 
 236   0.0000       4.253282       115.7377 
 237   0.0000       4.355752       118.5260 
 238   0.0000       4.438706       120.7833 
 239   0.0000       4.537235       123.4644 
 240   0.0000       4.550801       123.8336 
 241   0.0000       4.603404       125.2650 
 242   0.0000       4.617486       125.6482 
 243   0.0000       4.748931       129.2250 
 244   0.0000       4.768346       129.7533 
 245   0.0000       4.804997       130.7506 
 246   0.0000       4.831833       131.4809 
 247   0.0000       4.847213       131.8994 
 248   0.0000       4.872563       132.5892 
 249   0.0000       4.901976       133.3896 
 250   0.0000       4.965237       135.1110 
 251   0.0000       5.053663       137.5172 
 252   0.0000       5.139343       139.8486 
 253   0.0000       5.240443       142.5997 
 254   0.0000       5.256532       143.0375 
 255   0.0000       5.271059       143.4328 
 256   0.0000       5.328282       144.9899 
 257   0.0000       5.343633       145.4076 
 258   0.0000       5.407917       147.1569 
 259   0.0000       5.438076       147.9776 
 260   0.0000       5.543554       150.8478 
 261   0.0000       5.659550       154.0042 
 262   0.0000       5.668285       154.2419 
 263   0.0000       5.833125       158.7274 
 264   0.0000       5.924040       161.2013 
 265   0.0000       6.034277       164.2010 
 266   0.0000       6.044203       164.4711 
 267   0.0000       6.094224       165.8323 
 268   0.0000       6.276484       170.7918 
 269   0.0000       6.317937       171.9198 
 270   0.0000       6.414196       174.5391 
 271   0.0000       6.508321       177.1004 
 272   0.0000       6.655568       181.1072 
 273   0.0000       6.657643       181.1637 
 274   0.0000       6.815205       185.4512 
 275   0.0000       6.833668       185.9536 
 276   0.0000       6.905083       187.8969 
 277   0.0000       7.070526       192.3988 
 278   0.0000       7.102511       193.2691 
 279   0.0000       7.329560       199.4475 
 280   0.0000       7.858605       213.8435 
 281   0.0000       8.127707       221.1661 
 282   0.0000       8.270058       225.0397 
 283   0.0000       8.334425       226.7912 
 284   0.0000       9.175727       249.6842 
 285   0.0000       9.438017       256.8215 
 286   0.0000       9.782568       266.1972 
 287   0.0000      10.174474       276.8615 
 288   0.0000      10.189370       277.2668 
 289   0.0000      10.233396       278.4649 
 290   0.0000      10.274928       279.5950 
 291   0.0000      10.342861       281.4436 
 292   0.0000      10.431974       283.8684 
 293   0.0000      10.432550       283.8841 
 294   0.0000      10.448351       284.3141 
 295   0.0000      10.523609       286.3619 
 296   0.0000      10.626087       289.1505 
 297   0.0000      10.632471       289.3243 
 298   0.0000      10.735891       292.1385 
 299   0.0000      10.842170       295.0305 
 300   0.0000      10.844911       295.1050 
 301   0.0000      10.895967       296.4943 
 302   0.0000      11.051122       300.7163 
 303   0.0000      11.091027       301.8022 
 304   0.0000      11.386409       309.8399 
 305   0.0000      11.475898       312.2751 
 306   0.0000      11.483427       312.4799 
 307   0.0000      11.508402       313.1596 
 308   0.0000      11.526365       313.6483 
 309   0.0000      11.569735       314.8285 
 310   0.0000      11.577650       315.0439 
 311   0.0000      11.584999       315.2439 
 312   0.0000      11.632335       316.5319 
 313   0.0000      11.668377       317.5127 
 314   0.0000      11.722351       318.9814 
 315   0.0000      11.723742       319.0192 
 316   0.0000      11.836118       322.0772 
 317   0.0000      11.915478       324.2366 
 318   0.0000      11.950323       325.1848 
 319   0.0000      12.098928       329.2286 
 320   0.0000      12.123203       329.8891 
 321   0.0000      12.125284       329.9458 
 322   0.0000      12.269901       333.8810 
 323   0.0000      12.459345       339.0360 
 324   0.0000      12.507759       340.3534 
 325   0.0000      12.652010       344.2787 
 326   0.0000      12.725571       346.2804 
 327   0.0000      12.846881       349.5814 
 328   0.0000      12.964748       352.7887 
 329   0.0000      12.970400       352.9425 
 330   0.0000      13.537267       368.3678 
 331   0.0000      13.705274       372.9395 
 332   0.0000      13.768939       374.6719 
 333   0.0000      14.528375       395.3372 
 334   0.0000      14.561422       396.2364 
 335   0.0000      14.645886       398.5348 
 336   0.0000      14.751704       401.4143 
 337   0.0000      14.761651       401.6849 
 338   0.0000      15.005183       408.3118 
 339   0.0000      15.063119       409.8883 
 340   0.0000      15.374452       418.3601 
 341   0.0000      15.431676       419.9173 
 342   0.0000      15.593869       424.3307 
 343   0.0000      15.810143       430.2159 
 344   0.0000      15.890741       432.4091 
 345   0.0000      16.020685       435.9450 
 346   0.0000      16.728575       455.2077 
 347   0.0000      16.888714       459.5653 
 348   0.0000      16.971029       461.8052 
 349   0.0000      17.141477       466.4433 
 350   0.0000      17.685519       481.2474 
 351   0.0000      17.728005       482.4035 
 352   0.0000      17.771466       483.5862 
 353   0.0000      18.652668       507.5649 
 354   0.0000      19.070582       518.9369 
 355   0.0000      19.119396       520.2652 
 356   0.0000      21.469612       584.2178 
 357   0.0000      24.013187       653.4320 
 358   0.0000      26.138290       711.2590 
 359   0.0000      26.414033       718.7624 
 360   0.0000      27.945261       760.4292 
 361   0.0000      31.962704       869.7494 
 362   0.0000      32.051146       872.1560 
 363   0.0000      32.896098       895.1483 
 364   0.0000      32.914192       895.6407 
 365   0.0000      34.427604       936.8227 
 366   0.0000      47.761676      1299.6613 
 367   0.0000      47.882840      1302.9583 
 368   0.0000      48.013756      1306.5207 
 369   0.0000      48.069573      1308.0396 
 370   0.0000      48.952235      1332.0580 
 371   0.0000      74.272659      2021.0618 
 372   0.0000     104.191545      2835.1961 

                    ********************************
                    * MULLIKEN POPULATION ANALYSIS *
                    ********************************

--------------------------------------------
MULLIKEN ATOMIC CHARGES AND SPIN POPULATIONS
--------------------------------------------
   0 Li:    0.705299   -0.000000
   1 C :   -0.384045   -0.000000
   2 N :   -0.321254    0.000000
Sum of atomic charges         :    0.0000000
Sum of atomic spin populations:    0.0000000

-----------------------------------------------------
MULLIKEN REDUCED ORBITAL CHARGES AND SPIN POPULATIONS
-----------------------------------------------------
CHARGE
  0 Lis       :     2.064963  s :     2.064963
      pz      :     0.051654  p :     0.174038
      px      :     0.066026
      py      :     0.056358
      dz2     :     0.003022  d :     0.046261
      dxz     :     0.014085
      dyz     :     0.003590
      dx2y2   :     0.013347
      dxy     :     0.012218
      f0      :     0.001285  f :     0.009068
      f+1     :     0.000934
      f-1     :     0.000343
      f+2     :     0.000537
      f-2     :     0.001164
      f+3     :     0.002568
      f-3     :     0.002238
      g0      :     0.000062  g :     0.000371
      g+1     :    -0.000011
      g-1     :     0.000016
      g+2     :     0.000078
      g-2     :     0.000053
      g+3     :    -0.000005
      g-3     :     0.000033
      g+4     :     0.000035
      g-4     :     0.000110
  1 C s       :     3.830631  s :     3.830631
      pz      :     0.698909  p :     2.480497
      px      :     0.790839
      py      :     0.990748
      dz2     :     0.005387  d :     0.066860
      dxz     :     0.008292
      dyz     :     0.017001
      dx2y2   :     0.019817
      dxy     :     0.016363
      f0      :     0.001058  f :     0.005460
      f+1     :     0.000369
      f-1     :     0.000356
      f+2     :     0.000075
      f-2     :     0.001237
      f+3     :     0.000176
      f-3     :     0.002189
      g0      :     0.000003  g :     0.000612
      g+1     :     0.000042
      g-1     :     0.000143
      g+2     :    -0.000013
      g-2     :     0.000062
      g+3     :     0.000180
      g-3     :     0.000007
      g+4     :    -0.000076
      g-4     :     0.000263
      h0      :     0.000002  h :    -0.000015
      h+1     :    -0.000004
      h-1     :     0.000003
      h+2     :     0.000001
      h-2     :     0.000008
      h+3     :    -0.000024
      h-3     :     0.000012
      h+4     :     0.000006
      h-4     :     0.000002
      h+5     :    -0.000025
      h-5     :     0.000002
  2 N s       :     3.851700  s :     3.851700
      pz      :     1.182180  p :     3.434214
      px      :     1.135732
      py      :     1.116302
      dz2     :     0.005040  d :     0.033704
      dxz     :     0.001491
      dyz     :     0.015176
      dx2y2   :     0.009405
      dxy     :     0.002591
      f0      :     0.000820  f :     0.001028
      f+1     :     0.000530
      f-1     :     0.000369
      f+2     :     0.000327
      f-2     :     0.000463
      f+3     :    -0.003084
      f-3     :     0.001602
      g0      :     0.000025  g :     0.000403
      g+1     :     0.000051
      g-1     :     0.000088
      g+2     :     0.000121
      g-2     :     0.000005
      g+3     :     0.000119
      g-3     :    -0.000034
      g+4     :     0.000274
      g-4     :    -0.000247
      h0      :    -0.000000  h :     0.000205
      h+1     :    -0.000005
      h-1     :     0.000013
      h+2     :     0.000004
      h-2     :     0.000012
      h+3     :    -0.000007
      h-3     :     0.000044
      h+4     :    -0.000009
      h-4     :     0.000004
      h+5     :     0.000100
      h-5     :     0.000051

SPIN
  0 Lis       :    -0.000000  s :    -0.000000
      pz      :     0.000000  p :    -0.000000
      px      :     0.000000
      py      :    -0.000000
      dz2     :    -0.000000  d :     0.000000
      dxz     :     0.000000
      dyz     :    -0.000000
      dx2y2   :     0.000000
      dxy     :    -0.000000
      f0      :    -0.000000  f :    -0.000000
      f+1     :    -0.000000
      f-1     :     0.000000
      f+2     :     0.000000
      f-2     :    -0.000000
      f+3     :     0.000000
      f-3     :    -0.000000
      g0      :     0.000000  g :     0.000000
      g+1     :    -0.000000
      g-1     :    -0.000000
      g+2     :     0.000000
      g-2     :     0.000000
      g+3     :    -0.000000
      g-3     :     0.000000
      g+4     :     0.000000
      g-4     :     0.000000
  1 C s       :    -0.000000  s :    -0.000000
      pz      :     0.000000  p :    -0.000000
      px      :    -0.000000
      py      :    -0.000000
      dz2     :    -0.000000  d :    -0.000000
      dxz     :     0.000000
      dyz     :    -0.000000
      dx2y2   :    -0.000000
      dxy     :    -0.000000
      f0      :    -0.000000  f :    -0.000000
      f+1     :    -0.000000
      f-1     :    -0.000000
      f+2     :    -0.000000
      f-2     :     0.000000
      f+3     :    -0.000000
      f-3     :    -0.000000
      g0      :    -0.000000  g :    -0.000000
      g+1     :    -0.000000
      g-1     :    -0.000000
      g+2     :    -0.000000
      g-2     :    -0.000000
      g+3     :    -0.000000
      g-3     :     0.000000
      g+4     :    -0.000000
      g-4     :    -0.000000
      h0      :    -0.000000  h :    -0.000000
      h+1     :     0.000000
      h-1     :    -0.000000
      h+2     :    -0.000000
      h-2     :     0.000000
      h+3     :    -0.000000
      h-3     :     0.000000
      h+4     :    -0.000000
      h-4     :    -0.000000
      h+5     :    -0.000000
      h-5     :    -0.000000
  2 N s       :     0.000000  s :     0.000000
      pz      :    -0.000000  p :     0.000000
      px      :    -0.000000
      py      :     0.000000
      dz2     :     0.000000  d :     0.000000
      dxz     :     0.000000
      dyz     :    -0.000000
      dx2y2   :     0.000000
      dxy     :     0.000000
      f0      :     0.000000  f :     0.000000
      f+1     :     0.000000
      f-1     :     0.000000
      f+2     :    -0.000000
      f-2     :     0.000000
      f+3     :     0.000000
      f-3     :     0.000000
      g0      :     0.000000  g :     0.000000
      g+1     :     0.000000
      g-1     :     0.000000
      g+2     :     0.000000
      g-2     :     0.000000
      g+3     :     0.000000
      g-3     :     0.000000
      g+4     :     0.000000
      g-4     :     0.000000
      h0      :     0.000000  h :     0.000000
      h+1     :    -0.000000
      h-1     :     0.000000
      h+2     :    -0.000000
      h-2     :     0.000000
      h+3     :     0.000000
      h-3     :     0.000000
      h+4     :    -0.000000
      h-4     :     0.000000
      h+5     :     0.000000
      h-5     :     0.000000


                     *******************************
                     * LOEWDIN POPULATION ANALYSIS *
                     *******************************

-------------------------------------------
LOEWDIN ATOMIC CHARGES AND SPIN POPULATIONS
-------------------------------------------
   0 Li:    0.107169    0.000000
   1 C :   -0.113443   -0.000000
   2 N :    0.006274    0.000000

----------------------------------------------------
LOEWDIN REDUCED ORBITAL CHARGES AND SPIN POPULATIONS
----------------------------------------------------
CHARGE
  0 Lis       :     2.066091  s :     2.066091
      pz      :     0.050501  p :     0.350827
      px      :     0.209971
      py      :     0.090354
      dz2     :     0.041330  d :     0.275306
      dxz     :     0.048328
      dyz     :     0.012392
      dx2y2   :     0.085617
      dxy     :     0.087639
      f0      :     0.020122  f :     0.175667
      f+1     :     0.020570
      f-1     :     0.010323
      f+2     :     0.007351
      f-2     :     0.015666
      f+3     :     0.058220
      f-3     :     0.043416
      g0      :     0.001884  g :     0.024939
      g+1     :     0.003141
      g-1     :     0.000858
      g+2     :     0.002339
      g-2     :     0.002683
      g+3     :     0.000073
      g-3     :     0.001341
      g+4     :     0.005809
      g-4     :     0.006812
  1 C s       :     3.007302  s :     3.007302
      pz      :     0.638840  p :     2.515537
      px      :     0.812718
      py      :     1.063978
      dz2     :     0.051799  d :     0.410030
      dxz     :     0.035449
      dyz     :     0.060929
      dx2y2   :     0.122408
      dxy     :     0.139445
      f0      :     0.015349  f :     0.129943
      f+1     :     0.008782
      f-1     :     0.013744
      f+2     :     0.003198
      f-2     :     0.019429
      f+3     :     0.033564
      f-3     :     0.035877
      g0      :     0.002218  g :     0.038320
      g+1     :     0.002268
      g-1     :     0.004037
      g+2     :     0.003467
      g-2     :     0.003209
      g+3     :     0.003952
      g-3     :     0.000134
      g+4     :     0.011050
      g-4     :     0.007985
      h0      :     0.000442  h :     0.012311
      h+1     :     0.001545
      h-1     :     0.000303
      h+2     :     0.000038
      h-2     :     0.000476
      h+3     :     0.002507
      h-3     :     0.000418
      h+4     :     0.000106
      h-4     :     0.000286
      h+5     :     0.004785
      h-5     :     0.001406
  2 N s       :     3.105473  s :     3.105473
      pz      :     0.981731  p :     3.443381
      px      :     1.139461
      py      :     1.322189
      dz2     :     0.045600  d :     0.286275
      dxz     :     0.010372
      dyz     :     0.036246
      dx2y2   :     0.060234
      dxy     :     0.133823
      f0      :     0.008914  f :     0.098708
      f+1     :     0.009524
      f-1     :     0.013719
      f+2     :     0.001829
      f-2     :     0.009261
      f+3     :     0.028601
      f-3     :     0.026862
      g0      :     0.003676  g :     0.039843
      g+1     :     0.000604
      g-1     :     0.002859
      g+2     :     0.001446
      g-2     :     0.008152
      g+3     :     0.001886
      g-3     :     0.000355
      g+4     :     0.015851
      g-4     :     0.005014
      h0      :     0.000377  h :     0.020045
      h+1     :     0.002254
      h-1     :     0.001922
      h+2     :     0.000063
      h-2     :     0.000217
      h+3     :     0.001946
      h-3     :     0.003572
      h+4     :     0.000346
      h-4     :     0.000234
      h+5     :     0.006438
      h-5     :     0.002676

SPIN
  0 Lis       :    -0.000000  s :    -0.000000
      pz      :    -0.000000  p :     0.000000
      px      :     0.000000
      py      :     0.000000
      dz2     :    -0.000000  d :    -0.000000
      dxz     :     0.000000
      dyz     :    -0.000000
      dx2y2   :     0.000000
      dxy     :     0.000000
      f0      :    -0.000000  f :     0.000000
      f+1     :     0.000000
      f-1     :     0.000000
      f+2     :    -0.000000
      f-2     :     0.000000
      f+3     :     0.000000
      f-3     :     0.000000
      g0      :     0.000000  g :     0.000000
      g+1     :    -0.000000
      g-1     :     0.000000
      g+2     :    -0.000000
      g-2     :    -0.000000
      g+3     :    -0.000000
      g-3     :     0.000000
      g+4     :     0.000000
      g-4     :     0.000000
  1 C s       :    -0.000000  s :    -0.000000
      pz      :     0.000000  p :    -0.000000
      px      :    -0.000000
      py      :    -0.000000
      dz2     :     0.000000  d :     0.000000
      dxz     :     0.000000
      dyz     :    -0.000000
      dx2y2   :    -0.000000
      dxy     :     0.000000
      f0      :    -0.000000  f :    -0.000000
      f+1     :    -0.000000
      f-1     :     0.000000
      f+2     :    -0.000000
      f-2     :    -0.000000
      f+3     :    -0.000000
      f-3     :    -0.000000
      g0      :     0.000000  g :    -0.000000
      g+1     :    -0.000000
      g-1     :     0.000000
      g+2     :     0.000000
      g-2     :    -0.000000
      g+3     :    -0.000000
      g-3     :    -0.000000
      g+4     :    -0.000000
      g-4     :    -0.000000
      h0      :     0.000000  h :     0.000000
      h+1     :     0.000000
      h-1     :    -0.000000
      h+2     :    -0.000000
      h-2     :     0.000000
      h+3     :     0.000000
      h-3     :     0.000000
      h+4     :    -0.000000
      h-4     :     0.000000
      h+5     :    -0.000000
      h-5     :     0.000000
  2 N s       :     0.000000  s :     0.000000
      pz      :    -0.000000  p :    -0.000000
      px      :    -0.000000
      py      :    -0.000000
      dz2     :     0.000000  d :     0.000000
      dxz     :     0.000000
      dyz     :     0.000000
      dx2y2   :     0.000000
      dxy     :     0.000000
      f0      :     0.000000  f :     0.000000
      f+1     :    -0.000000
      f-1     :     0.000000
      f+2     :     0.000000
      f-2     :     0.000000
      f+3     :     0.000000
      f-3     :    -0.000000
      g0      :     0.000000  g :     0.000000
      g+1     :     0.000000
      g-1     :    -0.000000
      g+2     :     0.000000
      g-2     :     0.000000
      g+3     :     0.000000
      g-3     :     0.000000
      g+4     :     0.000000
      g-4     :    -0.000000
      h0      :    -0.000000  h :    -0.000000
      h+1     :    -0.000000
      h-1     :    -0.000000
      h+2     :    -0.000000
      h-2     :     0.000000
      h+3     :    -0.000000
      h-3     :    -0.000000
      h+4     :    -0.000000
      h-4     :     0.000000
      h+5     :     0.000000
      h-5     :    -0.000000


                      *****************************
                      * MAYER POPULATION ANALYSIS *
                      *****************************

  NA   - Mulliken gross atomic population
  ZA   - Total nuclear charge
  QA   - Mulliken gross atomic charge
  VA   - Mayer's total valence
  BVA  - Mayer's bonded valence
  FA   - Mayer's free valence

  ATOM       NA         ZA         QA         VA         BVA        FA
  0 Li     2.2947     3.0000     0.7053     0.4815     0.4815    -0.0000
  1 C      6.3840     6.0000    -0.3840     2.5762     2.5762     0.0000
  2 N      7.3213     7.0000    -0.3213     2.8079     2.8079     0.0000

  Mayer bond orders larger than 0.1
B(  0-Li,  1-C ) :   0.1249 B(  0-Li,  2-N ) :   0.3566 B(  1-C ,  2-N ) :   2.4513 


-------
TIMINGS
-------

Total SCF time: 0 days 0 hours 13 min 7 sec 

Total time                  ....     787.717 sec
Sum of individual times     ....     786.487 sec  ( 99.8%)

Fock matrix formation       ....     783.413 sec  ( 99.5%)
  XC integration            ....      14.096 sec  (  1.8% of F)
    Basis function eval.    ....       0.941 sec  (  6.7% of XC)
    Density eval.           ....       2.829 sec  ( 20.1% of XC)
    XC-Functional eval.     ....       0.142 sec  (  1.0% of XC)
    XC-Potential eval.      ....       9.757 sec  ( 69.2% of XC)
Diagonalization             ....       1.210 sec  (  0.2%)
Density matrix formation    ....       0.022 sec  (  0.0%)
Population analysis         ....       0.093 sec  (  0.0%)
Initial guess               ....       0.678 sec  (  0.1%)
Orbital Transformation      ....       0.000 sec  (  0.0%)
Orbital Orthonormalization  ....       0.000 sec  (  0.0%)
DIIS solution               ....       0.705 sec  (  0.1%)
Grid generation             ....       0.366 sec  (  0.0%)

-------------------------   --------------------
FINAL SINGLE POINT ENERGY      -100.285816579942
-------------------------   --------------------


                            ***************************************
                            *     ORCA property calculations      *
                            ***************************************

                                    ---------------------
                                    Active property flags
                                    ---------------------
   (+) Dipole Moment


------------------------------------------------------------------------------
                       ORCA ELECTRIC PROPERTIES CALCULATION
------------------------------------------------------------------------------

Dipole Moment Calculation                       ... on
Quadrupole Moment Calculation                   ... off
Polarizability Calculation                      ... off
GBWName                                         ... licn_pbe_-0001_y.gbw
Electron density file                           ... licn_pbe_-0001_y.scfp.tmp
The origin for moment calculation is the CENTER OF MASS  = ( 0.079529, -0.023371  0.000000)

-------------
DIPOLE MOMENT
-------------
                                X             Y             Z
Electronic contribution:      3.71754      -1.52025       0.00000
Nuclear contribution   :     -1.21344       0.53686       0.00000
                        -----------------------------------------
Total Dipole Moment    :      2.50410      -0.98339       0.00000
                        -----------------------------------------
Magnitude (a.u.)       :      2.69028
Magnitude (Debye)      :      6.83814



--------------------
Rotational spectrum 
--------------------
 
Rotational constants in cm-1:     1.939920     0.831697     0.582124 
Rotational constants in MHz : 58157.349324 24933.635650 17451.642424 

 Dipole components along the rotational axes: 
x,y,z [a.u.] :    -2.678479    -0.251689     0.000000 
x,y,z [Debye]:    -6.808152    -0.639742     0.000000 

 

Timings for individual modules:

Sum of individual times         ...      789.634 sec (=  13.161 min)
GTO integral calculation        ...        1.631 sec (=   0.027 min)   0.2 %
SCF iterations                  ...      788.003 sec (=  13.133 min)  99.8 %
                             ****ORCA TERMINATED NORMALLY****
TOTAL RUN TIME: 0 days 0 hours 13 minutes 10 seconds 496 msec
