
                                 *****************
                                 * O   R   C   A *
                                 *****************

           --- An Ab Initio, DFT and Semiempirical electronic structure package ---

                  #######################################################
                  #                        -***-                        #
                  #          Department of theory and spectroscopy      #
                  #               Directorship: Frank Neese             #
                  #        Max Planck Institute fuer Kohlenforschung    #
                  #                Kaiser Wilhelm Platz 1               #
                  #                 D-45470 Muelheim/Ruhr               #
                  #                      Germany                        #
                  #                                                     #
                  #                  All rights reserved                #
                  #                        -***-                        #
                  #######################################################


                         Program Version 4.1.2  - RELEASE  -


 With contributions from (in alphabetic order):
   Daniel Aravena         : Magnetic Properties
   Michael Atanasov       : Ab Initio Ligand Field Theory
   Alexander A. Auer      : GIAO ZORA
   Ute Becker             : Parallelization
   Giovanni Bistoni       : ED, Open-shell LED
   Martin Brehm           : Molecular dynamics
   Dmytro Bykov           : SCF Hessian
   Vijay G. Chilkuri      : MRCI spin determinant printing
   Dipayan Datta          : RHF DLPNO-CCSD density
   Achintya Kumar Dutta   : EOM-CC, STEOM-CC
   Dmitry Ganyushin       : Spin-Orbit,Spin-Spin,Magnetic field MRCI
   Miquel Garcia          : C-PCM Hessian
   Yang Guo               : DLPNO-NEVPT2, CIM, IAO-localization
   Andreas Hansen         : Spin unrestricted coupled pair/coupled cluster methods
   Benjamin Helmich-Paris : CASSCF linear response (MC-RPA)
   Lee Huntington         : MR-EOM, pCC
   Robert Izsak           : Overlap fitted RIJCOSX, COSX-SCS-MP3, EOM
   Christian Kollmar      : KDIIS, OOCD, Brueckner-CCSD(T), CCSD density
   Simone Kossmann        : Meta GGA functionals, TD-DFT gradient, OOMP2, MP2 Hessian
   Martin Krupicka        : AUTO-CI
   Lucas Lang             : DCDCAS
   Dagmar Lenk            : GEPOL surface, SMD
   Dimitrios Liakos       : Extrapolation schemes; parallel MDCI
   Dimitrios Manganas     : ROCIS; embedding schemes
   Dimitrios Pantazis     : SARC Basis sets
   Taras Petrenko         : DFT Hessian,TD-DFT gradient, ASA, ECA, R-Raman, ABS, FL, XAS/XES, NRVS
   Peter Pinski           : DLPNO-MP2, DLPNO-MP2 Gradient
   Christoph Reimann      : Effective Core Potentials
   Marius Retegan         : Local ZFS, SOC
   Christoph Riplinger    : Optimizer, TS searches, QM/MM, DLPNO-CCSD(T), (RO)-DLPNO pert. Triples
   Tobias Risthaus        : Range-separated hybrids, TD-DFT gradient, RPA, STAB
   Michael Roemelt        : Restricted open shell CIS
   Masaaki Saitow         : Open-shell DLPNO
   Barbara Sandhoefer     : DKH picture change effects
   Avijit Sen             : IP-ROCIS
   Kantharuban Sivalingam : CASSCF convergence, NEVPT2, FIC-MRCI
   Bernardo de Souza      : ESD, SOC TD-DFT
   Georgi Stoychev        : AutoAux, RI-MP2 NMR
   Willem Van den Heuvel  : Paramagnetic NMR
   Boris Wezisla          : Elementary symmetry handling
   Frank Wennmohs         : Technical directorship


 We gratefully acknowledge several colleagues who have allowed us to
 interface, adapt or use parts of their codes:
   Stefan Grimme, W. Hujo, H. Kruse,             : VdW corrections, initial TS optimization,
                  C. Bannwarth                     DFT functionals, gCP, sTDA/sTD-DF
   Ed Valeev                                     : LibInt (2-el integral package), F12 methods
   Garnet Chan, S. Sharma, J. Yang, R. Olivares  : DMRG
   Ulf Ekstrom                                   : XCFun DFT Library
   Mihaly Kallay                                 : mrcc  (arbitrary order and MRCC methods)
   Andreas Klamt, Michael Diedenhofen            : otool_cosmo (COSMO solvation model)
   Jiri Pittner, Ondrej Demel                    : Mk-CCSD
   Frank Weinhold                                : gennbo (NPA and NBO analysis)
   Christopher J. Cramer and Donald G. Truhlar   : smd solvation model
   Lars Goerigk                                  : TD-DFT with DH, B97 family of functionals
   V. Asgeirsson, H. Jonsson                     : NEB implementation
   FAccTs GmbH                                   : IRC, NEB, NEB-TS, Multilevel


 Your calculation uses the libint2 library for the computation of 2-el integrals
 For citations please refer to: http://libint.valeyev.net

 This ORCA versions uses:
   CBLAS   interface :  Fast vector & matrix operations
   LAPACKE interface :  Fast linear algebra routines
   SCALAPACK package :  Parallel linear algebra routines


----- Orbital basis set information -----
Your calculation utilizes the basis: aug-pc-4
   H, C-F              : F. Jensen, J. Chem. Phys. 115, 9113 (2001).
                         F. Jensen, J. Chem. Phys. 116, 7372 (2002).
                         F. Jensen, J. Chem. Phys. 117, 9234 (2002).
   Si-Cl               : F. Jensen, T. Helgaker, J. Chem. Phys. 121, 3463 (2004).
   He-B, Ne-Mg, Al, Ar : F. Jensen, J. Phys. Chem. A 111, 11198 (2007).
   K, Ca, Ga-Kr        : F. Jensen, J. Chem. Phys. 136, 094110 (2012).
   Sc-Zn               : F. Jensen, J. Chem. Phys. 138, 014107 (2013).

================================================================================
                                        WARNINGS
                       Please study these warnings very carefully!
================================================================================


INFO   : the flag for use of LIBINT has been found!

================================================================================
                                       INPUT FILE
================================================================================
NAME = licn_pbe_-0001_x.inp
|  1> !uks pbe nori aug-pc-4 grid5 nofinalgrid verytightscf
|  2> 
|  3> %maxcore 6000
|  4> 
|  5> %pal nprocs 4 end
|  6> 
|  7> %scf
|  8> 	efield -0.001, 0.0, 0.0
|  9> 	maxiter 200
| 10> end
| 11> 
| 12> * xyz 0 1
| 13> Li 1.4157454937 -0.6164252897 0.0000000000
| 14> C -0.6780148225 -0.3855159545 0.0000000000
| 15> N -0.0211306712 0.6069412443 0.0000000000
| 16> *
| 17> 
| 18>                          ****END OF INPUT****
================================================================================

                       ****************************
                       * Single Point Calculation *
                       ****************************

---------------------------------
CARTESIAN COORDINATES (ANGSTROEM)
---------------------------------
  Li     1.415745   -0.616425    0.000000
  C     -0.678015   -0.385516    0.000000
  N     -0.021131    0.606941    0.000000

----------------------------
CARTESIAN COORDINATES (A.U.)
----------------------------
  NO LB      ZA    FRAG     MASS         X           Y           Z
   0 Li    3.0000    0     6.941    2.675371   -1.164875    0.000000
   1 C     6.0000    0    12.011   -1.281262   -0.728520    0.000000
   2 N     7.0000    0    14.007   -0.039931    1.146953    0.000000

--------------------------------
INTERNAL COORDINATES (ANGSTROEM)
--------------------------------
 Li     0   0   0     0.000000000000     0.00000000     0.00000000
 C      1   0   0     2.106454695164     0.00000000     0.00000000
 N      2   1   0     1.190154645279    62.79376329     0.00000000

---------------------------
INTERNAL COORDINATES (A.U.)
---------------------------
 Li     0   0   0     0.000000000000     0.00000000     0.00000000
 C      1   0   0     3.980622487372     0.00000000     0.00000000
 N      2   1   0     2.249066336591    62.79376329     0.00000000

---------------------
BASIS SET INFORMATION
---------------------
There are 3 groups of distinct atoms

 Group   1 Type Li  : 31s9p4d3f2g contracted to 9s5p4d3f2g pattern {12121111111/51111/1111/111/11}
 Group   2 Type C   : 28s12p7d4f3g2h contracted to 9s8p7d4f3g2h pattern {11101111111/51111111/1111111/1111/111/11}
 Group   3 Type N   : 27s12p7d4f3g2h contracted to 9s8p7d4f3g2h pattern {1191111111/51111111/1111111/1111/111/11}

Atom   0Li   basis set group =>   1
Atom   1C    basis set group =>   2
Atom   2N    basis set group =>   3


           ************************************************************
           *        Program running with 4 parallel MPI-processes     *
           *              working on a common directory               *
           ************************************************************
------------------------------------------------------------------------------
                           ORCA GTO INTEGRAL CALCULATION
------------------------------------------------------------------------------

                         BASIS SET STATISTICS AND STARTUP INFO

 # of primitive gaussian shells          ...  160
 # of primitive gaussian functions       ...  468
 # of contracted shells                  ...   89
 # of contracted basis functions         ...  373
 Highest angular momentum                ...    5
 Maximum contraction depth               ...   12
 Integral package used                   ... LIBINT
 Integral threshhold            Thresh   ...  1.000e-12
 Primitive cut-off              TCut     ...  1.000e-14


------------------------------ INTEGRAL EVALUATION ----------------------------


 * One electron integrals 
 Pre-screening matrix                    ... done
 Shell pair data                         ... done (   0.001 sec)


An Electric Field will be added: -1.000e-03 0.000e+00 0.000e+00 au

  ... done adding electric field perturbation



           ************************************************************
           *        Program running with 4 parallel MPI-processes     *
           *              working on a common directory               *
           ************************************************************
-------------------------------------------------------------------------------
                                 ORCA SCF
-------------------------------------------------------------------------------

------------
SCF SETTINGS
------------
Hamiltonian:
 Density Functional     Method          .... DFT(GTOs)
 Exchange Functional    Exchange        .... PBE
   PBE kappa parameter   XKappa         ....  0.804000
   PBE mue parameter    XMuePBE         ....  0.219520
 Correlation Functional Correlation     .... PBE
   PBE beta parameter  CBetaPBE         ....  0.066725
 LDA part of GGA corr.  LDAOpt          .... PW91-LDA
 Gradients option       PostSCFGGA      .... off
   Density functional embedding theory  .... OFF
   NL short-range parameter             ....  6.400000


General Settings:
 Integral files         IntName         .... licn_pbe_-0001_x
 Hartree-Fock type      HFTyp           .... UHF
 Total Charge           Charge          ....    0
 Multiplicity           Mult            ....    1
 Number of Electrons    NEL             ....   16
 Basis Dimension        Dim             ....  373
 Nuclear Repulsion      ENuc            ....     29.0850277302 Eh

Convergence Acceleration:
 DIIS                   CNVDIIS         .... on
   Start iteration      DIISMaxIt       ....    12
   Startup error        DIISStart       ....  0.200000
   # of expansion vecs  DIISMaxEq       ....     5
   Bias factor          DIISBfac        ....   1.050
   Max. coefficient     DIISMaxC        ....  10.000
 Newton-Raphson         CNVNR           .... off
 SOSCF                  CNVSOSCF        .... off
 Level Shifting         CNVShift        .... on
   Level shift para.    LevelShift      ....    0.2500
   Turn off err/grad.   ShiftErr        ....    0.0010
 Zerner damping         CNVZerner       .... off
 Static damping         CNVDamp         .... on
   Fraction old density DampFac         ....    0.7000
   Max. Damping (<1)    DampMax         ....    0.9800
   Min. Damping (>=0)   DampMin         ....    0.0000
   Turn off err/grad.   DampErr         ....    0.1000
 Fernandez-Rico         CNVRico         .... off

SCF Procedure:
 Maximum # iterations   MaxIter         ....   200
 SCF integral mode      SCFMode         .... Direct
   Integral package                     .... LIBINT
 Reset frequency        DirectResetFreq ....    20
 Integral Threshold     Thresh          ....  1.000e-12 Eh
 Primitive CutOff       TCut            ....  1.000e-14 Eh

Convergence Tolerance:
 Convergence Check Mode ConvCheckMode   .... Total+1el-Energy
 Convergence forced     ConvForced      .... 0
 Energy Change          TolE            ....  1.000e-09 Eh
 1-El. energy change                    ....  1.000e-06 Eh
 DIIS Error             TolErr          ....  1.000e-08


Diagonalization of the overlap matrix:
Smallest eigenvalue                        ... 8.815e-07
Time for diagonalization                   ...    0.025 sec
Threshold for overlap eigenvalues          ... 1.000e-08
Number of eigenvalues below threshold      ... 0
Time for construction of square roots      ...    0.018 sec
Total time needed                          ...    0.044 sec

-------------------
DFT GRID GENERATION
-------------------

General Integration Accuracy     IntAcc      ...  5.010
Radial Grid Type                 RadialGrid  ... Gauss-Chebyshev
Angular Grid (max. acc.)         AngularGrid ... Lebedev-434
Angular grid pruning method      GridPruning ... 3 (G Style)
Weight generation scheme         WeightScheme... Becke
Basis function cutoff            BFCut       ...    1.0000e-12
Integration weight cutoff        WCut        ...    1.0000e-14
Grids for H and He will be reduced by one unit

# of grid points (after initial pruning)     ...  31650 (   0.0 sec)
# of grid points (after weights+screening)   ...  31407 (   0.0 sec)
nearest neighbour list constructed           ...    0.0 sec
Grid point re-assignment to atoms done       ...    0.0 sec
Grid point division into batches done        ...    0.2 sec
Reduced shell lists constructed in    0.3 sec

Total number of grid points                  ...    31407
Total number of batches                      ...      493
Average number of points per batch           ...       63
Average number of grid points per atom       ...    10469
Average number of shells per batch           ...    54.05 (60.73%)
Average number of basis functions per batch  ...   225.47 (60.45%)
Average number of large shells per batch     ...    46.73 (86.46%)
Average number of large basis fcns per batch ...   194.68 (86.34%)
Maximum spatial batch extension              ...  30.30, 32.58, 32.58 au
Average spatial batch extension              ...   1.55,  1.67,  1.66 au

Time for grid setup =    0.360 sec

------------------------------
INITIAL GUESS: MODEL POTENTIAL
------------------------------
Loading Hartree-Fock densities                     ... done
Calculating cut-offs                               ... done
Setting up the integral package                    ... done
Initializing the effective Hamiltonian             ... done
Starting the Coulomb interaction                   ... done (   0.0 sec)
Reading the grid                                   ... done
Mapping shells                                     ... done
Starting the XC term evaluation                    ... done (   0.5 sec)
  promolecular density results
     # of electrons  =     15.999997333
     EX              =    -13.283770326
     EC              =     -0.463352887
     EX+EC           =    -13.747123213
Transforming the Hamiltonian                       ... done (   0.0 sec)
Diagonalizing the Hamiltonian                      ... done (   0.0 sec)
Back transforming the eigenvectors                 ... done (   0.0 sec)
Now organizing SCF variables                       ... done
                      ------------------
                      INITIAL GUESS DONE (   1.0 sec)
                      ------------------
--------------
SCF ITERATIONS
--------------
ITER       Energy         Delta-E        Max-DP      RMS-DP      [F,P]     Damp
               ***  Starting incremental Fock matrix formation  ***
  0   -100.1624042750   0.000000000000 0.02036914  0.00021292  0.2771129 0.7000
  1   -100.2246621184  -0.062257843456 0.02100730  0.00016523  0.0929979 0.7000
                               ***Turning on DIIS***
  2   -100.2411321765  -0.016470058109 0.03191633  0.00029045  0.0423494 0.0000
  3   -100.2737914097  -0.032659233173 0.01663024  0.00011845  0.0445039 0.0000
  4   -100.2798108081  -0.006019398422 0.00494681  0.00004002  0.0412798 0.0000
  5   -100.2821293836  -0.002318575475 0.00280154  0.00002287  0.0119045 0.0000
  6   -100.2823366409  -0.000207257292 0.00180881  0.00001194  0.0027139 0.0000
  7   -100.2823521955  -0.000015554572 0.00130621  0.00000884  0.0007455 0.0000
  8   -100.2823555478  -0.000003352332 0.00021112  0.00000156  0.0001818 0.0000
  9   -100.2823556124  -0.000000064598 0.00002430  0.00000033  0.0001402 0.0000
 10   -100.2823556432  -0.000000030774 0.00000709  0.00000006  0.0000208 0.0000
 11   -100.2823556442  -0.000000001053 0.00000309  0.00000003  0.0000042 0.0000
 12   -100.2823556443  -0.000000000113 0.00000300  0.00000003  0.0000011 0.0000
                 **** Energy Check signals convergence ****

               *****************************************************
               *                     SUCCESS                       *
               *           SCF CONVERGED AFTER  13 CYCLES          *
               *****************************************************


----------------
TOTAL SCF ENERGY
----------------

Total Energy       :         -100.28235564 Eh           -2728.82163 eV

Components:
Nuclear Repulsion  :           29.08502773 Eh             791.44384 eV
Electronic Energy  :         -129.36738337 Eh           -3520.26547 eV
One Electron Energy:         -193.47611776 Eh           -5264.75282 eV
Two Electron Energy:           64.10873438 Eh            1744.48735 eV

Virial components:
Potential Energy   :         -200.12237791 Eh           -5445.60675 eV
Kinetic Energy     :           99.84002227 Eh            2716.78512 eV
Virial Ratio       :            2.00443042


DFT components:
N(Alpha)           :        7.999997412639 electrons
N(Beta)            :        7.999997412639 electrons
N(Total)           :       15.999994825277 electrons
E(X)               :      -13.532346674964 Eh       
E(C)               :       -0.482135390256 Eh       
E(XC)              :      -14.014482065221 Eh       
DFET-embed. en.    :        0.000000000000 Eh       

---------------
SCF CONVERGENCE
---------------

  Last Energy change         ...   -3.7232e-12  Tolerance :   1.0000e-09
  Last MAX-Density change    ...    1.9482e-06  Tolerance :   1.0000e-08
  Last RMS-Density change    ...    2.5551e-08  Tolerance :   1.0000e-09
  Last DIIS Error            ...    4.1440e-07  Tolerance :   1.0000e-08

             **** THE GBW FILE WAS UPDATED (licn_pbe_-0001_x.gbw) ****
             **** DENSITY FILE WAS UPDATED (licn_pbe_-0001_x.scfp.tmp) ****
             **** ENERGY FILE WAS UPDATED (licn_pbe_-0001_x.en.tmp) ****
----------------------
UHF SPIN CONTAMINATION
----------------------

Warning: in a DFT calculation there is little theoretical justification to 
         calculate <S**2> as in Hartree-Fock theory. We will do it anyways
         but you should keep in mind that the values have only limited relevance

Expectation value of <S**2>     :     0.000000
Ideal value S*(S+1) for S=0.0   :     0.000000
Deviation                       :     0.000000

----------------
ORBITAL ENERGIES
----------------
                 SPIN UP ORBITALS
  NO   OCC          E(Eh)            E(eV) 
   0   1.0000     -13.939397      -379.3103 
   1   1.0000      -9.860614      -268.3210 
   2   1.0000      -1.913910       -52.0801 
   3   1.0000      -0.778212       -21.1762 
   4   1.0000      -0.342635        -9.3236 
   5   1.0000      -0.288055        -7.8384 
   6   1.0000      -0.269128        -7.3233 
   7   1.0000      -0.215565        -5.8658 
   8   0.0000      -0.071105        -1.9349 
   9   0.0000      -0.030174        -0.8211 
  10   0.0000      -0.013533        -0.3683 
  11   0.0000      -0.007398        -0.2013 
  12   0.0000       0.003948         0.1074 
  13   0.0000       0.011606         0.3158 
  14   0.0000       0.013942         0.3794 
  15   0.0000       0.019119         0.5203 
  16   0.0000       0.025451         0.6926 
  17   0.0000       0.028358         0.7717 
  18   0.0000       0.038033         1.0349 
  19   0.0000       0.040649         1.1061 
  20   0.0000       0.041756         1.1362 
  21   0.0000       0.042558         1.1580 
  22   0.0000       0.044318         1.2059 
  23   0.0000       0.051962         1.4140 
  24   0.0000       0.061562         1.6752 
  25   0.0000       0.068366         1.8603 
  26   0.0000       0.073752         2.0069 
  27   0.0000       0.076301         2.0762 
  28   0.0000       0.079277         2.1572 
  29   0.0000       0.080733         2.1969 
  30   0.0000       0.087210         2.3731 
  31   0.0000       0.093043         2.5318 
  32   0.0000       0.095558         2.6003 
  33   0.0000       0.095835         2.6078 
  34   0.0000       0.104538         2.8446 
  35   0.0000       0.106953         2.9103 
  36   0.0000       0.112491         3.0610 
  37   0.0000       0.114436         3.1140 
  38   0.0000       0.125204         3.4070 
  39   0.0000       0.133174         3.6239 
  40   0.0000       0.133923         3.6442 
  41   0.0000       0.138983         3.7819 
  42   0.0000       0.139811         3.8045 
  43   0.0000       0.148769         4.0482 
  44   0.0000       0.155750         4.2382 
  45   0.0000       0.156862         4.2684 
  46   0.0000       0.158171         4.3041 
  47   0.0000       0.158395         4.3101 
  48   0.0000       0.160473         4.3667 
  49   0.0000       0.161627         4.3981 
  50   0.0000       0.169216         4.6046 
  51   0.0000       0.169261         4.6058 
  52   0.0000       0.174815         4.7570 
  53   0.0000       0.177746         4.8367 
  54   0.0000       0.182284         4.9602 
  55   0.0000       0.194325         5.2878 
  56   0.0000       0.198976         5.4144 
  57   0.0000       0.205139         5.5821 
  58   0.0000       0.207963         5.6590 
  59   0.0000       0.215149         5.8545 
  60   0.0000       0.227891         6.2012 
  61   0.0000       0.238049         6.4776 
  62   0.0000       0.255639         6.9563 
  63   0.0000       0.265625         7.2280 
  64   0.0000       0.267496         7.2789 
  65   0.0000       0.271882         7.3983 
  66   0.0000       0.272095         7.4041 
  67   0.0000       0.280264         7.6264 
  68   0.0000       0.281488         7.6597 
  69   0.0000       0.290561         7.9066 
  70   0.0000       0.296976         8.0811 
  71   0.0000       0.304689         8.2910 
  72   0.0000       0.309806         8.4302 
  73   0.0000       0.322088         8.7645 
  74   0.0000       0.326589         8.8869 
  75   0.0000       0.333231         9.0677 
  76   0.0000       0.338978         9.2240 
  77   0.0000       0.342708         9.3256 
  78   0.0000       0.356241         9.6938 
  79   0.0000       0.372793        10.1442 
  80   0.0000       0.378871        10.3096 
  81   0.0000       0.381641        10.3850 
  82   0.0000       0.385715        10.4958 
  83   0.0000       0.400091        10.8870 
  84   0.0000       0.400346        10.8940 
  85   0.0000       0.410151        11.1608 
  86   0.0000       0.422192        11.4884 
  87   0.0000       0.424676        11.5560 
  88   0.0000       0.430565        11.7163 
  89   0.0000       0.435900        11.8614 
  90   0.0000       0.447712        12.1829 
  91   0.0000       0.461243        12.5511 
  92   0.0000       0.472926        12.8690 
  93   0.0000       0.474991        12.9252 
  94   0.0000       0.489815        13.3286 
  95   0.0000       0.497806        13.5460 
  96   0.0000       0.506057        13.7705 
  97   0.0000       0.522231        14.2106 
  98   0.0000       0.534164        14.5354 
  99   0.0000       0.535508        14.5719 
 100   0.0000       0.538596        14.6559 
 101   0.0000       0.557372        15.1669 
 102   0.0000       0.566182        15.4066 
 103   0.0000       0.575749        15.6669 
 104   0.0000       0.577083        15.7032 
 105   0.0000       0.579017        15.7558 
 106   0.0000       0.591799        16.1037 
 107   0.0000       0.593969        16.1627 
 108   0.0000       0.611601        16.6425 
 109   0.0000       0.617436        16.8013 
 110   0.0000       0.627045        17.0628 
 111   0.0000       0.629956        17.1420 
 112   0.0000       0.634746        17.2723 
 113   0.0000       0.644814        17.5463 
 114   0.0000       0.652551        17.7568 
 115   0.0000       0.660889        17.9837 
 116   0.0000       0.667984        18.1768 
 117   0.0000       0.672183        18.2910 
 118   0.0000       0.679007        18.4767 
 119   0.0000       0.684595        18.6288 
 120   0.0000       0.686344        18.6764 
 121   0.0000       0.692366        18.8402 
 122   0.0000       0.692459        18.8428 
 123   0.0000       0.709538        19.3075 
 124   0.0000       0.734966        19.9994 
 125   0.0000       0.735956        20.0264 
 126   0.0000       0.762119        20.7383 
 127   0.0000       0.778844        21.1934 
 128   0.0000       0.788185        21.4476 
 129   0.0000       0.794295        21.6139 
 130   0.0000       0.796339        21.6695 
 131   0.0000       0.822309        22.3762 
 132   0.0000       0.836575        22.7644 
 133   0.0000       0.838985        22.8299 
 134   0.0000       0.843575        22.9548 
 135   0.0000       0.857580        23.3359 
 136   0.0000       0.874986        23.8096 
 137   0.0000       0.901533        24.5320 
 138   0.0000       0.908960        24.7341 
 139   0.0000       0.916140        24.9294 
 140   0.0000       0.924423        25.1548 
 141   0.0000       0.937873        25.5208 
 142   0.0000       0.944774        25.7086 
 143   0.0000       0.957223        26.0474 
 144   0.0000       0.965852        26.2822 
 145   0.0000       0.977869        26.6092 
 146   0.0000       0.997389        27.1403 
 147   0.0000       0.999385        27.1947 
 148   0.0000       1.012743        27.5581 
 149   0.0000       1.033108        28.1123 
 150   0.0000       1.036220        28.1970 
 151   0.0000       1.052682        28.6449 
 152   0.0000       1.056266        28.7425 
 153   0.0000       1.060051        28.8455 
 154   0.0000       1.090765        29.6812 
 155   0.0000       1.092334        29.7239 
 156   0.0000       1.094758        29.7899 
 157   0.0000       1.109202        30.1829 
 158   0.0000       1.132051        30.8047 
 159   0.0000       1.159986        31.5648 
 160   0.0000       1.163352        31.6564 
 161   0.0000       1.190582        32.3974 
 162   0.0000       1.198579        32.6150 
 163   0.0000       1.210900        32.9503 
 164   0.0000       1.244002        33.8510 
 165   0.0000       1.253800        34.1176 
 166   0.0000       1.260725        34.3061 
 167   0.0000       1.300301        35.3830 
 168   0.0000       1.338775        36.4299 
 169   0.0000       1.354783        36.8655 
 170   0.0000       1.407127        38.2899 
 171   0.0000       1.472113        40.0582 
 172   0.0000       1.485451        40.4212 
 173   0.0000       1.525748        41.5177 
 174   0.0000       1.571011        42.7494 
 175   0.0000       1.578275        42.9470 
 176   0.0000       1.614356        43.9289 
 177   0.0000       1.619512        44.0692 
 178   0.0000       1.654729        45.0275 
 179   0.0000       1.696329        46.1595 
 180   0.0000       1.755675        47.7743 
 181   0.0000       1.786755        48.6201 
 182   0.0000       1.803455        49.0745 
 183   0.0000       1.837886        50.0114 
 184   0.0000       1.867190        50.8088 
 185   0.0000       1.958468        53.2926 
 186   0.0000       1.996595        54.3301 
 187   0.0000       2.064215        56.1701 
 188   0.0000       2.089555        56.8597 
 189   0.0000       2.101728        57.1909 
 190   0.0000       2.122631        57.7597 
 191   0.0000       2.171160        59.0803 
 192   0.0000       2.192275        59.6548 
 193   0.0000       2.193876        59.6984 
 194   0.0000       2.220561        60.4245 
 195   0.0000       2.222523        60.4779 
 196   0.0000       2.276517        61.9472 
 197   0.0000       2.306779        62.7706 
 198   0.0000       2.345487        63.8240 
 199   0.0000       2.409617        65.5690 
 200   0.0000       2.458997        66.9127 
 201   0.0000       2.473261        67.3008 
 202   0.0000       2.492548        67.8257 
 203   0.0000       2.545331        69.2620 
 204   0.0000       2.555776        69.5462 
 205   0.0000       2.611369        71.0590 
 206   0.0000       2.614089        71.1330 
 207   0.0000       2.683546        73.0230 
 208   0.0000       2.699722        73.4632 
 209   0.0000       2.739332        74.5410 
 210   0.0000       2.747376        74.7599 
 211   0.0000       2.751133        74.8621 
 212   0.0000       2.828586        76.9697 
 213   0.0000       2.884766        78.4985 
 214   0.0000       2.914604        79.3104 
 215   0.0000       2.999631        81.6241 
 216   0.0000       3.035446        82.5987 
 217   0.0000       3.067595        83.4735 
 218   0.0000       3.072334        83.6025 
 219   0.0000       3.076985        83.7290 
 220   0.0000       3.118302        84.8533 
 221   0.0000       3.180270        86.5395 
 222   0.0000       3.199807        87.0712 
 223   0.0000       3.247709        88.3746 
 224   0.0000       3.322065        90.3980 
 225   0.0000       3.348937        91.1292 
 226   0.0000       3.447939        93.8232 
 227   0.0000       3.468599        94.3854 
 228   0.0000       3.544881        96.4611 
 229   0.0000       3.789364       103.1138 
 230   0.0000       3.855658       104.9178 
 231   0.0000       4.055693       110.3610 
 232   0.0000       4.126225       112.2803 
 233   0.0000       4.173454       113.5655 
 234   0.0000       4.183734       113.8452 
 235   0.0000       4.238741       115.3420 
 236   0.0000       4.253340       115.7393 
 237   0.0000       4.355752       118.5260 
 238   0.0000       4.439039       120.7924 
 239   0.0000       4.537370       123.4681 
 240   0.0000       4.551074       123.8410 
 241   0.0000       4.603520       125.2682 
 242   0.0000       4.617391       125.6456 
 243   0.0000       4.749203       129.2324 
 244   0.0000       4.768560       129.7591 
 245   0.0000       4.805121       130.7540 
 246   0.0000       4.832078       131.4875 
 247   0.0000       4.847411       131.9048 
 248   0.0000       4.872728       132.5937 
 249   0.0000       4.902128       133.3937 
 250   0.0000       4.965291       135.1124 
 251   0.0000       5.053532       137.5136 
 252   0.0000       5.139506       139.8531 
 253   0.0000       5.239026       142.5611 
 254   0.0000       5.256651       143.0407 
 255   0.0000       5.270415       143.4153 
 256   0.0000       5.328539       144.9969 
 257   0.0000       5.343275       145.3979 
 258   0.0000       5.407781       147.1532 
 259   0.0000       5.436442       147.9331 
 260   0.0000       5.543187       150.8378 
 261   0.0000       5.659628       154.0063 
 262   0.0000       5.668536       154.2487 
 263   0.0000       5.832826       158.7193 
 264   0.0000       5.923221       161.1790 
 265   0.0000       6.034277       164.2010 
 266   0.0000       6.043844       164.4614 
 267   0.0000       6.093091       165.8014 
 268   0.0000       6.276673       170.7970 
 269   0.0000       6.318330       171.9305 
 270   0.0000       6.414553       174.5489 
 271   0.0000       6.508332       177.1007 
 272   0.0000       6.655995       181.1188 
 273   0.0000       6.657576       181.1618 
 274   0.0000       6.815347       185.4550 
 275   0.0000       6.834053       185.9640 
 276   0.0000       6.905571       187.9101 
 277   0.0000       7.070773       192.4055 
 278   0.0000       7.102925       193.2804 
 279   0.0000       7.329802       199.4541 
 280   0.0000       7.858954       213.8530 
 281   0.0000       8.128249       221.1809 
 282   0.0000       8.270395       225.0489 
 283   0.0000       8.334767       226.8006 
 284   0.0000       9.176047       249.6929 
 285   0.0000       9.438266       256.8283 
 286   0.0000       9.782738       266.2018 
 287   0.0000      10.174684       276.8672 
 288   0.0000      10.189591       277.2729 
 289   0.0000      10.233592       278.4702 
 290   0.0000      10.275116       279.6001 
 291   0.0000      10.343140       281.4511 
 292   0.0000      10.432095       283.8717 
 293   0.0000      10.432743       283.8894 
 294   0.0000      10.448622       284.3214 
 295   0.0000      10.523765       286.3662 
 296   0.0000      10.625955       289.1469 
 297   0.0000      10.632692       289.3303 
 298   0.0000      10.734244       292.0936 
 299   0.0000      10.842390       295.0364 
 300   0.0000      10.845042       295.1086 
 301   0.0000      10.896001       296.4953 
 302   0.0000      11.051330       300.7220 
 303   0.0000      11.091227       301.8076 
 304   0.0000      11.386740       309.8489 
 305   0.0000      11.476273       312.2853 
 306   0.0000      11.483609       312.4849 
 307   0.0000      11.508741       313.1688 
 308   0.0000      11.526627       313.6555 
 309   0.0000      11.570070       314.8376 
 310   0.0000      11.577825       315.0486 
 311   0.0000      11.585228       315.2501 
 312   0.0000      11.632484       316.5360 
 313   0.0000      11.668629       317.5196 
 314   0.0000      11.722679       318.9903 
 315   0.0000      11.724081       319.0285 
 316   0.0000      11.836253       322.0808 
 317   0.0000      11.915655       324.2414 
 318   0.0000      11.950500       325.1896 
 319   0.0000      12.099081       329.2327 
 320   0.0000      12.123388       329.8942 
 321   0.0000      12.125412       329.9492 
 322   0.0000      12.269973       333.8829 
 323   0.0000      12.459558       339.0418 
 324   0.0000      12.507985       340.3596 
 325   0.0000      12.652095       344.2810 
 326   0.0000      12.725656       346.2827 
 327   0.0000      12.847015       349.5850 
 328   0.0000      12.965032       352.7965 
 329   0.0000      12.970676       352.9500 
 330   0.0000      13.537423       368.3720 
 331   0.0000      13.705439       372.9439 
 332   0.0000      13.769121       374.6768 
 333   0.0000      14.528650       395.3447 
 334   0.0000      14.561729       396.2448 
 335   0.0000      14.646183       398.5429 
 336   0.0000      14.752046       401.4236 
 337   0.0000      14.761955       401.6932 
 338   0.0000      15.005458       408.3193 
 339   0.0000      15.063393       409.8958 
 340   0.0000      15.374812       418.3699 
 341   0.0000      15.432037       419.9271 
 342   0.0000      15.594141       424.3382 
 343   0.0000      15.810472       430.2248 
 344   0.0000      15.891098       432.4187 
 345   0.0000      16.020841       435.9492 
 346   0.0000      16.728783       455.2133 
 347   0.0000      16.888944       459.5715 
 348   0.0000      16.971304       461.8127 
 349   0.0000      17.141742       466.4505 
 350   0.0000      17.685785       481.2547 
 351   0.0000      17.728285       482.4112 
 352   0.0000      17.771737       483.5935 
 353   0.0000      18.652911       507.5715 
 354   0.0000      19.070705       518.9403 
 355   0.0000      19.119535       520.2690 
 356   0.0000      21.469747       584.2215 
 357   0.0000      24.013414       653.4382 
 358   0.0000      26.138501       711.2648 
 359   0.0000      26.414242       718.7681 
 360   0.0000      27.945473       760.4350 
 361   0.0000      31.962792       869.7518 
 362   0.0000      32.051234       872.1584 
 363   0.0000      32.896171       895.1503 
 364   0.0000      32.914274       895.6429 
 365   0.0000      34.427689       936.8251 
 366   0.0000      47.761855      1299.6662 
 367   0.0000      47.883017      1302.9631 
 368   0.0000      48.013935      1306.5256 
 369   0.0000      48.069762      1308.0447 
 370   0.0000      48.952422      1332.0631 
 371   0.0000      74.272700      2021.0629 
 372   0.0000     104.191728      2835.2011 

                 SPIN DOWN ORBITALS
  NO   OCC          E(Eh)            E(eV) 
   0   1.0000     -13.939397      -379.3103 
   1   1.0000      -9.860614      -268.3210 
   2   1.0000      -1.913910       -52.0801 
   3   1.0000      -0.778212       -21.1762 
   4   1.0000      -0.342635        -9.3236 
   5   1.0000      -0.288055        -7.8384 
   6   1.0000      -0.269128        -7.3233 
   7   1.0000      -0.215565        -5.8658 
   8   0.0000      -0.071105        -1.9349 
   9   0.0000      -0.030174        -0.8211 
  10   0.0000      -0.013533        -0.3683 
  11   0.0000      -0.007398        -0.2013 
  12   0.0000       0.003948         0.1074 
  13   0.0000       0.011606         0.3158 
  14   0.0000       0.013942         0.3794 
  15   0.0000       0.019119         0.5203 
  16   0.0000       0.025451         0.6926 
  17   0.0000       0.028358         0.7717 
  18   0.0000       0.038033         1.0349 
  19   0.0000       0.040649         1.1061 
  20   0.0000       0.041756         1.1362 
  21   0.0000       0.042558         1.1580 
  22   0.0000       0.044318         1.2059 
  23   0.0000       0.051962         1.4140 
  24   0.0000       0.061562         1.6752 
  25   0.0000       0.068366         1.8603 
  26   0.0000       0.073752         2.0069 
  27   0.0000       0.076301         2.0762 
  28   0.0000       0.079277         2.1572 
  29   0.0000       0.080733         2.1969 
  30   0.0000       0.087210         2.3731 
  31   0.0000       0.093043         2.5318 
  32   0.0000       0.095558         2.6003 
  33   0.0000       0.095835         2.6078 
  34   0.0000       0.104538         2.8446 
  35   0.0000       0.106953         2.9103 
  36   0.0000       0.112491         3.0610 
  37   0.0000       0.114436         3.1140 
  38   0.0000       0.125204         3.4070 
  39   0.0000       0.133174         3.6239 
  40   0.0000       0.133923         3.6442 
  41   0.0000       0.138983         3.7819 
  42   0.0000       0.139811         3.8045 
  43   0.0000       0.148769         4.0482 
  44   0.0000       0.155750         4.2382 
  45   0.0000       0.156862         4.2684 
  46   0.0000       0.158171         4.3041 
  47   0.0000       0.158395         4.3101 
  48   0.0000       0.160473         4.3667 
  49   0.0000       0.161627         4.3981 
  50   0.0000       0.169216         4.6046 
  51   0.0000       0.169261         4.6058 
  52   0.0000       0.174815         4.7570 
  53   0.0000       0.177746         4.8367 
  54   0.0000       0.182284         4.9602 
  55   0.0000       0.194325         5.2878 
  56   0.0000       0.198976         5.4144 
  57   0.0000       0.205139         5.5821 
  58   0.0000       0.207963         5.6590 
  59   0.0000       0.215149         5.8545 
  60   0.0000       0.227891         6.2012 
  61   0.0000       0.238049         6.4776 
  62   0.0000       0.255639         6.9563 
  63   0.0000       0.265625         7.2280 
  64   0.0000       0.267496         7.2789 
  65   0.0000       0.271882         7.3983 
  66   0.0000       0.272095         7.4041 
  67   0.0000       0.280264         7.6264 
  68   0.0000       0.281488         7.6597 
  69   0.0000       0.290561         7.9066 
  70   0.0000       0.296976         8.0811 
  71   0.0000       0.304689         8.2910 
  72   0.0000       0.309806         8.4302 
  73   0.0000       0.322088         8.7645 
  74   0.0000       0.326589         8.8869 
  75   0.0000       0.333231         9.0677 
  76   0.0000       0.338978         9.2240 
  77   0.0000       0.342708         9.3256 
  78   0.0000       0.356241         9.6938 
  79   0.0000       0.372793        10.1442 
  80   0.0000       0.378871        10.3096 
  81   0.0000       0.381641        10.3850 
  82   0.0000       0.385715        10.4958 
  83   0.0000       0.400091        10.8870 
  84   0.0000       0.400346        10.8940 
  85   0.0000       0.410151        11.1608 
  86   0.0000       0.422192        11.4884 
  87   0.0000       0.424676        11.5560 
  88   0.0000       0.430565        11.7163 
  89   0.0000       0.435900        11.8614 
  90   0.0000       0.447712        12.1829 
  91   0.0000       0.461243        12.5511 
  92   0.0000       0.472926        12.8690 
  93   0.0000       0.474991        12.9252 
  94   0.0000       0.489815        13.3286 
  95   0.0000       0.497806        13.5460 
  96   0.0000       0.506057        13.7705 
  97   0.0000       0.522231        14.2106 
  98   0.0000       0.534164        14.5354 
  99   0.0000       0.535508        14.5719 
 100   0.0000       0.538596        14.6559 
 101   0.0000       0.557372        15.1669 
 102   0.0000       0.566182        15.4066 
 103   0.0000       0.575749        15.6669 
 104   0.0000       0.577083        15.7032 
 105   0.0000       0.579017        15.7558 
 106   0.0000       0.591799        16.1037 
 107   0.0000       0.593969        16.1627 
 108   0.0000       0.611601        16.6425 
 109   0.0000       0.617436        16.8013 
 110   0.0000       0.627045        17.0628 
 111   0.0000       0.629956        17.1420 
 112   0.0000       0.634746        17.2723 
 113   0.0000       0.644814        17.5463 
 114   0.0000       0.652551        17.7568 
 115   0.0000       0.660889        17.9837 
 116   0.0000       0.667984        18.1768 
 117   0.0000       0.672183        18.2910 
 118   0.0000       0.679007        18.4767 
 119   0.0000       0.684595        18.6288 
 120   0.0000       0.686344        18.6764 
 121   0.0000       0.692366        18.8402 
 122   0.0000       0.692459        18.8428 
 123   0.0000       0.709538        19.3075 
 124   0.0000       0.734966        19.9994 
 125   0.0000       0.735956        20.0264 
 126   0.0000       0.762119        20.7383 
 127   0.0000       0.778844        21.1934 
 128   0.0000       0.788185        21.4476 
 129   0.0000       0.794295        21.6139 
 130   0.0000       0.796339        21.6695 
 131   0.0000       0.822309        22.3762 
 132   0.0000       0.836575        22.7644 
 133   0.0000       0.838985        22.8299 
 134   0.0000       0.843575        22.9548 
 135   0.0000       0.857580        23.3359 
 136   0.0000       0.874986        23.8096 
 137   0.0000       0.901533        24.5320 
 138   0.0000       0.908960        24.7341 
 139   0.0000       0.916140        24.9294 
 140   0.0000       0.924423        25.1548 
 141   0.0000       0.937873        25.5208 
 142   0.0000       0.944774        25.7086 
 143   0.0000       0.957223        26.0474 
 144   0.0000       0.965852        26.2822 
 145   0.0000       0.977869        26.6092 
 146   0.0000       0.997389        27.1403 
 147   0.0000       0.999385        27.1947 
 148   0.0000       1.012743        27.5581 
 149   0.0000       1.033108        28.1123 
 150   0.0000       1.036220        28.1970 
 151   0.0000       1.052682        28.6449 
 152   0.0000       1.056266        28.7425 
 153   0.0000       1.060051        28.8455 
 154   0.0000       1.090765        29.6812 
 155   0.0000       1.092334        29.7239 
 156   0.0000       1.094758        29.7899 
 157   0.0000       1.109202        30.1829 
 158   0.0000       1.132051        30.8047 
 159   0.0000       1.159986        31.5648 
 160   0.0000       1.163352        31.6564 
 161   0.0000       1.190582        32.3974 
 162   0.0000       1.198579        32.6150 
 163   0.0000       1.210900        32.9503 
 164   0.0000       1.244002        33.8510 
 165   0.0000       1.253800        34.1176 
 166   0.0000       1.260725        34.3061 
 167   0.0000       1.300301        35.3830 
 168   0.0000       1.338775        36.4299 
 169   0.0000       1.354783        36.8655 
 170   0.0000       1.407127        38.2899 
 171   0.0000       1.472113        40.0582 
 172   0.0000       1.485451        40.4212 
 173   0.0000       1.525748        41.5177 
 174   0.0000       1.571011        42.7494 
 175   0.0000       1.578275        42.9470 
 176   0.0000       1.614356        43.9289 
 177   0.0000       1.619512        44.0692 
 178   0.0000       1.654729        45.0275 
 179   0.0000       1.696329        46.1595 
 180   0.0000       1.755675        47.7743 
 181   0.0000       1.786755        48.6201 
 182   0.0000       1.803455        49.0745 
 183   0.0000       1.837886        50.0114 
 184   0.0000       1.867190        50.8088 
 185   0.0000       1.958468        53.2926 
 186   0.0000       1.996595        54.3301 
 187   0.0000       2.064215        56.1701 
 188   0.0000       2.089555        56.8597 
 189   0.0000       2.101728        57.1909 
 190   0.0000       2.122631        57.7597 
 191   0.0000       2.171160        59.0803 
 192   0.0000       2.192275        59.6548 
 193   0.0000       2.193876        59.6984 
 194   0.0000       2.220561        60.4245 
 195   0.0000       2.222523        60.4779 
 196   0.0000       2.276517        61.9472 
 197   0.0000       2.306779        62.7706 
 198   0.0000       2.345487        63.8240 
 199   0.0000       2.409617        65.5690 
 200   0.0000       2.458997        66.9127 
 201   0.0000       2.473261        67.3008 
 202   0.0000       2.492548        67.8257 
 203   0.0000       2.545331        69.2620 
 204   0.0000       2.555776        69.5462 
 205   0.0000       2.611369        71.0590 
 206   0.0000       2.614089        71.1330 
 207   0.0000       2.683546        73.0230 
 208   0.0000       2.699722        73.4632 
 209   0.0000       2.739332        74.5410 
 210   0.0000       2.747376        74.7599 
 211   0.0000       2.751133        74.8621 
 212   0.0000       2.828586        76.9697 
 213   0.0000       2.884766        78.4985 
 214   0.0000       2.914604        79.3104 
 215   0.0000       2.999631        81.6241 
 216   0.0000       3.035446        82.5987 
 217   0.0000       3.067595        83.4735 
 218   0.0000       3.072334        83.6025 
 219   0.0000       3.076985        83.7290 
 220   0.0000       3.118302        84.8533 
 221   0.0000       3.180270        86.5395 
 222   0.0000       3.199807        87.0712 
 223   0.0000       3.247709        88.3746 
 224   0.0000       3.322065        90.3980 
 225   0.0000       3.348937        91.1292 
 226   0.0000       3.447939        93.8232 
 227   0.0000       3.468599        94.3854 
 228   0.0000       3.544881        96.4611 
 229   0.0000       3.789364       103.1138 
 230   0.0000       3.855658       104.9178 
 231   0.0000       4.055693       110.3610 
 232   0.0000       4.126225       112.2803 
 233   0.0000       4.173454       113.5655 
 234   0.0000       4.183734       113.8452 
 235   0.0000       4.238741       115.3420 
 236   0.0000       4.253340       115.7393 
 237   0.0000       4.355752       118.5260 
 238   0.0000       4.439039       120.7924 
 239   0.0000       4.537370       123.4681 
 240   0.0000       4.551074       123.8410 
 241   0.0000       4.603520       125.2682 
 242   0.0000       4.617391       125.6456 
 243   0.0000       4.749203       129.2324 
 244   0.0000       4.768560       129.7591 
 245   0.0000       4.805121       130.7540 
 246   0.0000       4.832078       131.4875 
 247   0.0000       4.847411       131.9048 
 248   0.0000       4.872728       132.5937 
 249   0.0000       4.902128       133.3937 
 250   0.0000       4.965291       135.1124 
 251   0.0000       5.053532       137.5136 
 252   0.0000       5.139506       139.8531 
 253   0.0000       5.239026       142.5611 
 254   0.0000       5.256651       143.0407 
 255   0.0000       5.270415       143.4153 
 256   0.0000       5.328539       144.9969 
 257   0.0000       5.343275       145.3979 
 258   0.0000       5.407781       147.1532 
 259   0.0000       5.436442       147.9331 
 260   0.0000       5.543187       150.8378 
 261   0.0000       5.659628       154.0063 
 262   0.0000       5.668536       154.2487 
 263   0.0000       5.832826       158.7193 
 264   0.0000       5.923221       161.1790 
 265   0.0000       6.034277       164.2010 
 266   0.0000       6.043844       164.4614 
 267   0.0000       6.093091       165.8014 
 268   0.0000       6.276673       170.7970 
 269   0.0000       6.318330       171.9305 
 270   0.0000       6.414553       174.5489 
 271   0.0000       6.508332       177.1007 
 272   0.0000       6.655995       181.1188 
 273   0.0000       6.657576       181.1618 
 274   0.0000       6.815347       185.4550 
 275   0.0000       6.834053       185.9640 
 276   0.0000       6.905571       187.9101 
 277   0.0000       7.070773       192.4055 
 278   0.0000       7.102925       193.2804 
 279   0.0000       7.329802       199.4541 
 280   0.0000       7.858954       213.8530 
 281   0.0000       8.128249       221.1809 
 282   0.0000       8.270395       225.0489 
 283   0.0000       8.334767       226.8006 
 284   0.0000       9.176047       249.6929 
 285   0.0000       9.438266       256.8283 
 286   0.0000       9.782738       266.2018 
 287   0.0000      10.174684       276.8672 
 288   0.0000      10.189591       277.2729 
 289   0.0000      10.233592       278.4702 
 290   0.0000      10.275116       279.6001 
 291   0.0000      10.343140       281.4511 
 292   0.0000      10.432095       283.8717 
 293   0.0000      10.432743       283.8894 
 294   0.0000      10.448622       284.3214 
 295   0.0000      10.523765       286.3662 
 296   0.0000      10.625955       289.1469 
 297   0.0000      10.632692       289.3303 
 298   0.0000      10.734244       292.0936 
 299   0.0000      10.842390       295.0364 
 300   0.0000      10.845042       295.1086 
 301   0.0000      10.896001       296.4953 
 302   0.0000      11.051330       300.7220 
 303   0.0000      11.091227       301.8076 
 304   0.0000      11.386740       309.8489 
 305   0.0000      11.476273       312.2853 
 306   0.0000      11.483609       312.4849 
 307   0.0000      11.508741       313.1688 
 308   0.0000      11.526627       313.6555 
 309   0.0000      11.570070       314.8376 
 310   0.0000      11.577825       315.0486 
 311   0.0000      11.585228       315.2501 
 312   0.0000      11.632484       316.5360 
 313   0.0000      11.668629       317.5196 
 314   0.0000      11.722679       318.9903 
 315   0.0000      11.724081       319.0285 
 316   0.0000      11.836253       322.0808 
 317   0.0000      11.915655       324.2414 
 318   0.0000      11.950500       325.1896 
 319   0.0000      12.099081       329.2327 
 320   0.0000      12.123388       329.8942 
 321   0.0000      12.125412       329.9492 
 322   0.0000      12.269973       333.8829 
 323   0.0000      12.459558       339.0418 
 324   0.0000      12.507985       340.3596 
 325   0.0000      12.652095       344.2810 
 326   0.0000      12.725656       346.2827 
 327   0.0000      12.847015       349.5850 
 328   0.0000      12.965032       352.7965 
 329   0.0000      12.970676       352.9500 
 330   0.0000      13.537423       368.3720 
 331   0.0000      13.705439       372.9439 
 332   0.0000      13.769121       374.6768 
 333   0.0000      14.528650       395.3447 
 334   0.0000      14.561729       396.2448 
 335   0.0000      14.646183       398.5429 
 336   0.0000      14.752046       401.4236 
 337   0.0000      14.761955       401.6932 
 338   0.0000      15.005458       408.3193 
 339   0.0000      15.063393       409.8958 
 340   0.0000      15.374812       418.3699 
 341   0.0000      15.432037       419.9271 
 342   0.0000      15.594141       424.3382 
 343   0.0000      15.810472       430.2248 
 344   0.0000      15.891098       432.4187 
 345   0.0000      16.020841       435.9492 
 346   0.0000      16.728783       455.2133 
 347   0.0000      16.888944       459.5715 
 348   0.0000      16.971304       461.8127 
 349   0.0000      17.141742       466.4505 
 350   0.0000      17.685785       481.2547 
 351   0.0000      17.728285       482.4112 
 352   0.0000      17.771737       483.5935 
 353   0.0000      18.652911       507.5715 
 354   0.0000      19.070705       518.9403 
 355   0.0000      19.119535       520.2690 
 356   0.0000      21.469747       584.2215 
 357   0.0000      24.013414       653.4382 
 358   0.0000      26.138501       711.2648 
 359   0.0000      26.414242       718.7681 
 360   0.0000      27.945473       760.4350 
 361   0.0000      31.962792       869.7518 
 362   0.0000      32.051234       872.1584 
 363   0.0000      32.896171       895.1503 
 364   0.0000      32.914274       895.6429 
 365   0.0000      34.427689       936.8251 
 366   0.0000      47.761855      1299.6662 
 367   0.0000      47.883017      1302.9631 
 368   0.0000      48.013935      1306.5256 
 369   0.0000      48.069762      1308.0447 
 370   0.0000      48.952422      1332.0631 
 371   0.0000      74.272700      2021.0629 
 372   0.0000     104.191728      2835.2011 

                    ********************************
                    * MULLIKEN POPULATION ANALYSIS *
                    ********************************

--------------------------------------------
MULLIKEN ATOMIC CHARGES AND SPIN POPULATIONS
--------------------------------------------
   0 Li:    0.701311   -0.000000
   1 C :   -0.384044    0.000000
   2 N :   -0.317267   -0.000000
Sum of atomic charges         :    0.0000000
Sum of atomic spin populations:    0.0000000

-----------------------------------------------------
MULLIKEN REDUCED ORBITAL CHARGES AND SPIN POPULATIONS
-----------------------------------------------------
CHARGE
  0 Lis       :     2.066284  s :     2.066284
      pz      :     0.053062  p :     0.176463
      px      :     0.066356
      py      :     0.057045
      dz2     :     0.003028  d :     0.046455
      dxz     :     0.014195
      dyz     :     0.003590
      dx2y2   :     0.013349
      dxy     :     0.012293
      f0      :     0.001297  f :     0.009118
      f+1     :     0.000932
      f-1     :     0.000344
      f+2     :     0.000542
      f-2     :     0.001170
      f+3     :     0.002578
      f-3     :     0.002255
      g0      :     0.000062  g :     0.000370
      g+1     :    -0.000012
      g-1     :     0.000016
      g+2     :     0.000078
      g-2     :     0.000053
      g+3     :    -0.000006
      g-3     :     0.000033
      g+4     :     0.000035
      g-4     :     0.000110
  1 C s       :     3.828051  s :     3.828051
      pz      :     0.699319  p :     2.483094
      px      :     0.790287
      py      :     0.993488
      dz2     :     0.005376  d :     0.066861
      dxz     :     0.008432
      dyz     :     0.016778
      dx2y2   :     0.020065
      dxy     :     0.016208
      f0      :     0.001056  f :     0.005451
      f+1     :     0.000367
      f-1     :     0.000357
      f+2     :     0.000069
      f-2     :     0.001238
      f+3     :     0.000192
      f-3     :     0.002171
      g0      :     0.000003  g :     0.000603
      g+1     :     0.000042
      g-1     :     0.000143
      g+2     :    -0.000013
      g-2     :     0.000060
      g+3     :     0.000179
      g-3     :     0.000007
      g+4     :    -0.000081
      g-4     :     0.000263
      h0      :     0.000003  h :    -0.000016
      h+1     :    -0.000004
      h-1     :     0.000003
      h+2     :     0.000001
      h-2     :     0.000008
      h+3     :    -0.000024
      h-3     :     0.000012
      h+4     :     0.000006
      h-4     :     0.000002
      h+5     :    -0.000026
      h-5     :     0.000003
  2 N s       :     3.852485  s :     3.852485
      pz      :     1.180125  p :     3.429323
      px      :     1.133240
      py      :     1.115958
      dz2     :     0.004985  d :     0.033831
      dxz     :     0.001398
      dyz     :     0.015454
      dx2y2   :     0.009451
      dxy     :     0.002543
      f0      :     0.000823  f :     0.001011
      f+1     :     0.000531
      f-1     :     0.000366
      f+2     :     0.000333
      f-2     :     0.000462
      f+3     :    -0.003122
      f-3     :     0.001617
      g0      :     0.000025  g :     0.000409
      g+1     :     0.000050
      g-1     :     0.000091
      g+2     :     0.000124
      g-2     :     0.000004
      g+3     :     0.000119
      g-3     :    -0.000034
      g+4     :     0.000278
      g-4     :    -0.000247
      h0      :    -0.000000  h :     0.000208
      h+1     :    -0.000005
      h-1     :     0.000013
      h+2     :     0.000004
      h-2     :     0.000012
      h+3     :    -0.000007
      h-3     :     0.000045
      h+4     :    -0.000009
      h-4     :     0.000004
      h+5     :     0.000102
      h-5     :     0.000051

SPIN
  0 Lis       :    -0.000000  s :    -0.000000
      pz      :    -0.000000  p :     0.000000
      px      :     0.000000
      py      :    -0.000000
      dz2     :     0.000000  d :     0.000000
      dxz     :     0.000000
      dyz     :    -0.000000
      dx2y2   :     0.000000
      dxy     :    -0.000000
      f0      :     0.000000  f :    -0.000000
      f+1     :     0.000000
      f-1     :    -0.000000
      f+2     :     0.000000
      f-2     :    -0.000000
      f+3     :    -0.000000
      f-3     :    -0.000000
      g0      :     0.000000  g :    -0.000000
      g+1     :     0.000000
      g-1     :    -0.000000
      g+2     :     0.000000
      g-2     :    -0.000000
      g+3     :     0.000000
      g-3     :     0.000000
      g+4     :    -0.000000
      g-4     :     0.000000
  1 C s       :     0.000000  s :     0.000000
      pz      :    -0.000000  p :     0.000000
      px      :     0.000000
      py      :     0.000000
      dz2     :     0.000000  d :     0.000000
      dxz     :     0.000000
      dyz     :    -0.000000
      dx2y2   :     0.000000
      dxy     :    -0.000000
      f0      :     0.000000  f :     0.000000
      f+1     :     0.000000
      f-1     :    -0.000000
      f+2     :    -0.000000
      f-2     :    -0.000000
      f+3     :     0.000000
      f-3     :    -0.000000
      g0      :     0.000000  g :     0.000000
      g+1     :     0.000000
      g-1     :     0.000000
      g+2     :     0.000000
      g-2     :     0.000000
      g+3     :    -0.000000
      g-3     :    -0.000000
      g+4     :     0.000000
      g-4     :     0.000000
      h0      :     0.000000  h :     0.000000
      h+1     :    -0.000000
      h-1     :    -0.000000
      h+2     :    -0.000000
      h-2     :     0.000000
      h+3     :     0.000000
      h-3     :     0.000000
      h+4     :    -0.000000
      h-4     :     0.000000
      h+5     :     0.000000
      h-5     :     0.000000
  2 N s       :    -0.000000  s :    -0.000000
      pz      :     0.000000  p :    -0.000000
      px      :    -0.000000
      py      :    -0.000000
      dz2     :    -0.000000  d :    -0.000000
      dxz     :     0.000000
      dyz     :     0.000000
      dx2y2   :    -0.000000
      dxy     :    -0.000000
      f0      :    -0.000000  f :    -0.000000
      f+1     :    -0.000000
      f-1     :    -0.000000
      f+2     :    -0.000000
      f-2     :     0.000000
      f+3     :    -0.000000
      f-3     :    -0.000000
      g0      :    -0.000000  g :    -0.000000
      g+1     :     0.000000
      g-1     :    -0.000000
      g+2     :     0.000000
      g-2     :     0.000000
      g+3     :    -0.000000
      g-3     :     0.000000
      g+4     :    -0.000000
      g-4     :    -0.000000
      h0      :    -0.000000  h :    -0.000000
      h+1     :    -0.000000
      h-1     :    -0.000000
      h+2     :    -0.000000
      h-2     :     0.000000
      h+3     :    -0.000000
      h-3     :    -0.000000
      h+4     :     0.000000
      h-4     :    -0.000000
      h+5     :    -0.000000
      h-5     :    -0.000000


                     *******************************
                     * LOEWDIN POPULATION ANALYSIS *
                     *******************************

-------------------------------------------
LOEWDIN ATOMIC CHARGES AND SPIN POPULATIONS
-------------------------------------------
   0 Li:    0.105270   -0.000000
   1 C :   -0.112656    0.000000
   2 N :    0.007386   -0.000000

----------------------------------------------------
LOEWDIN REDUCED ORBITAL CHARGES AND SPIN POPULATIONS
----------------------------------------------------
CHARGE
  0 Lis       :     2.068229  s :     2.068229
      pz      :     0.051203  p :     0.351378
      px      :     0.209562
      py      :     0.090613
      dz2     :     0.041242  d :     0.274868
      dxz     :     0.048266
      dyz     :     0.012308
      dx2y2   :     0.085427
      dxy     :     0.087626
      f0      :     0.020089  f :     0.175406
      f+1     :     0.020523
      f-1     :     0.010310
      f+2     :     0.007352
      f-2     :     0.015607
      f+3     :     0.058139
      f-3     :     0.043386
      g0      :     0.001876  g :     0.024849
      g+1     :     0.003130
      g-1     :     0.000854
      g+2     :     0.002332
      g-2     :     0.002675
      g+3     :     0.000073
      g-3     :     0.001332
      g+4     :     0.005779
      g-4     :     0.006799
  1 C s       :     3.006930  s :     3.006930
      pz      :     0.639127  p :     2.515414
      px      :     0.812675
      py      :     1.063612
      dz2     :     0.051770  d :     0.409800
      dxz     :     0.035817
      dyz     :     0.060441
      dx2y2   :     0.122352
      dxy     :     0.139420
      f0      :     0.015358  f :     0.129869
      f+1     :     0.008789
      f-1     :     0.013734
      f+2     :     0.003178
      f-2     :     0.019400
      f+3     :     0.033551
      f-3     :     0.035858
      g0      :     0.002219  g :     0.038318
      g+1     :     0.002277
      g-1     :     0.004030
      g+2     :     0.003465
      g-2     :     0.003212
      g+3     :     0.003942
      g-3     :     0.000134
      g+4     :     0.011051
      g-4     :     0.007990
      h0      :     0.000443  h :     0.012324
      h+1     :     0.001547
      h-1     :     0.000303
      h+2     :     0.000038
      h-2     :     0.000475
      h+3     :     0.002509
      h-3     :     0.000419
      h+4     :     0.000106
      h-4     :     0.000286
      h+5     :     0.004791
      h-5     :     0.001408
  2 N s       :     3.105447  s :     3.105447
      pz      :     0.980890  p :     3.441729
      px      :     1.138235
      py      :     1.322604
      dz2     :     0.045596  d :     0.286706
      dxz     :     0.010185
      dyz     :     0.036675
      dx2y2   :     0.060554
      dxy     :     0.133696
      f0      :     0.008958  f :     0.098779
      f+1     :     0.009509
      f-1     :     0.013744
      f+2     :     0.001836
      f-2     :     0.009235
      f+3     :     0.028582
      f-3     :     0.026915
      g0      :     0.003679  g :     0.039885
      g+1     :     0.000601
      g-1     :     0.002873
      g+2     :     0.001453
      g-2     :     0.008154
      g+3     :     0.001883
      g-3     :     0.000357
      g+4     :     0.015878
      g-4     :     0.005006
      h0      :     0.000379  h :     0.020068
      h+1     :     0.002257
      h-1     :     0.001923
      h+2     :     0.000064
      h-2     :     0.000216
      h+3     :     0.001948
      h-3     :     0.003579
      h+4     :     0.000348
      h-4     :     0.000235
      h+5     :     0.006440
      h-5     :     0.002680

SPIN
  0 Lis       :    -0.000000  s :    -0.000000
      pz      :     0.000000  p :    -0.000000
      px      :    -0.000000
      py      :    -0.000000
      dz2     :    -0.000000  d :    -0.000000
      dxz     :    -0.000000
      dyz     :    -0.000000
      dx2y2   :    -0.000000
      dxy     :    -0.000000
      f0      :    -0.000000  f :     0.000000
      f+1     :    -0.000000
      f-1     :    -0.000000
      f+2     :     0.000000
      f-2     :    -0.000000
      f+3     :     0.000000
      f-3     :     0.000000
      g0      :     0.000000  g :     0.000000
      g+1     :    -0.000000
      g-1     :    -0.000000
      g+2     :    -0.000000
      g-2     :    -0.000000
      g+3     :    -0.000000
      g-3     :     0.000000
      g+4     :    -0.000000
      g-4     :     0.000000
  1 C s       :     0.000000  s :     0.000000
      pz      :     0.000000  p :     0.000000
      px      :     0.000000
      py      :     0.000000
      dz2     :    -0.000000  d :    -0.000000
      dxz     :     0.000000
      dyz     :    -0.000000
      dx2y2   :    -0.000000
      dxy     :     0.000000
      f0      :     0.000000  f :    -0.000000
      f+1     :     0.000000
      f-1     :    -0.000000
      f+2     :    -0.000000
      f-2     :     0.000000
      f+3     :    -0.000000
      f-3     :     0.000000
      g0      :     0.000000  g :     0.000000
      g+1     :     0.000000
      g-1     :     0.000000
      g+2     :     0.000000
      g-2     :     0.000000
      g+3     :    -0.000000
      g-3     :     0.000000
      g+4     :     0.000000
      g-4     :     0.000000
      h0      :    -0.000000  h :     0.000000
      h+1     :    -0.000000
      h-1     :     0.000000
      h+2     :    -0.000000
      h-2     :     0.000000
      h+3     :    -0.000000
      h-3     :    -0.000000
      h+4     :    -0.000000
      h-4     :     0.000000
      h+5     :     0.000000
      h-5     :     0.000000
  2 N s       :    -0.000000  s :    -0.000000
      pz      :    -0.000000  p :    -0.000000
      px      :    -0.000000
      py      :    -0.000000
      dz2     :    -0.000000  d :     0.000000
      dxz     :    -0.000000
      dyz     :     0.000000
      dx2y2   :     0.000000
      dxy     :     0.000000
      f0      :    -0.000000  f :     0.000000
      f+1     :     0.000000
      f-1     :    -0.000000
      f+2     :     0.000000
      f-2     :     0.000000
      f+3     :     0.000000
      f-3     :    -0.000000
      g0      :    -0.000000  g :     0.000000
      g+1     :    -0.000000
      g-1     :    -0.000000
      g+2     :     0.000000
      g-2     :     0.000000
      g+3     :    -0.000000
      g-3     :     0.000000
      g+4     :     0.000000
      g-4     :    -0.000000
      h0      :    -0.000000  h :    -0.000000
      h+1     :    -0.000000
      h-1     :    -0.000000
      h+2     :    -0.000000
      h-2     :     0.000000
      h+3     :    -0.000000
      h-3     :    -0.000000
      h+4     :    -0.000000
      h-4     :     0.000000
      h+5     :    -0.000000
      h-5     :     0.000000


                      *****************************
                      * MAYER POPULATION ANALYSIS *
                      *****************************

  NA   - Mulliken gross atomic population
  ZA   - Total nuclear charge
  QA   - Mulliken gross atomic charge
  VA   - Mayer's total valence
  BVA  - Mayer's bonded valence
  FA   - Mayer's free valence

  ATOM       NA         ZA         QA         VA         BVA        FA
  0 Li     2.2987     3.0000     0.7013     0.4876     0.4876    -0.0000
  1 C      6.3840     6.0000    -0.3840     2.5805     2.5805     0.0000
  2 N      7.3173     7.0000    -0.3173     2.8133     2.8133     0.0000

  Mayer bond orders larger than 0.1
B(  0-Li,  1-C ) :   0.1274 B(  0-Li,  2-N ) :   0.3602 B(  1-C ,  2-N ) :   2.4531 


-------
TIMINGS
-------

Total SCF time: 0 days 0 hours 13 min 7 sec 

Total time                  ....     787.986 sec
Sum of individual times     ....     787.166 sec  ( 99.9%)

Fock matrix formation       ....     784.095 sec  ( 99.5%)
  XC integration            ....      15.554 sec  (  2.0% of F)
    Basis function eval.    ....       0.949 sec  (  6.1% of XC)
    Density eval.           ....       2.852 sec  ( 18.3% of XC)
    XC-Functional eval.     ....       0.130 sec  (  0.8% of XC)
    XC-Potential eval.      ....       9.847 sec  ( 63.3% of XC)
Diagonalization             ....       1.201 sec  (  0.2%)
Density matrix formation    ....       0.018 sec  (  0.0%)
Population analysis         ....       0.121 sec  (  0.0%)
Initial guess               ....       0.685 sec  (  0.1%)
Orbital Transformation      ....       0.000 sec  (  0.0%)
Orbital Orthonormalization  ....       0.000 sec  (  0.0%)
DIIS solution               ....       0.688 sec  (  0.1%)
Grid generation             ....       0.360 sec  (  0.0%)

-------------------------   --------------------
FINAL SINGLE POINT ENERGY      -100.282355644330
-------------------------   --------------------


                            ***************************************
                            *     ORCA property calculations      *
                            ***************************************

                                    ---------------------
                                    Active property flags
                                    ---------------------
   (+) Dipole Moment


------------------------------------------------------------------------------
                       ORCA ELECTRIC PROPERTIES CALCULATION
------------------------------------------------------------------------------

Dipole Moment Calculation                       ... on
Quadrupole Moment Calculation                   ... off
Polarizability Calculation                      ... off
GBWName                                         ... licn_pbe_-0001_x.gbw
Electron density file                           ... licn_pbe_-0001_x.scfp.tmp
The origin for moment calculation is the CENTER OF MASS  = ( 0.079529, -0.023371  0.000000)

-------------
DIPOLE MOMENT
-------------
                                X             Y             Z
Electronic contribution:      3.69071      -1.49383       0.00000
Nuclear contribution   :     -1.21344       0.53686       0.00000
                        -----------------------------------------
Total Dipole Moment    :      2.47727      -0.95697       0.00000
                        -----------------------------------------
Magnitude (a.u.)       :      2.65569
Magnitude (Debye)      :      6.75022



--------------------
Rotational spectrum 
--------------------
 
Rotational constants in cm-1:     1.939920     0.831697     0.582124 
Rotational constants in MHz : 58157.349324 24933.635650 17451.642424 

 Dipole components along the rotational axes: 
x,y,z [a.u.] :    -2.645380    -0.233730     0.000000 
x,y,z [Debye]:    -6.724021    -0.594096     0.000000 

 

Timings for individual modules:

Sum of individual times         ...      790.049 sec (=  13.167 min)
GTO integral calculation        ...        1.776 sec (=   0.030 min)   0.2 %
SCF iterations                  ...      788.273 sec (=  13.138 min)  99.8 %
                             ****ORCA TERMINATED NORMALLY****
TOTAL RUN TIME: 0 days 0 hours 13 minutes 11 seconds 91 msec
