
                                 *****************
                                 * O   R   C   A *
                                 *****************

           --- An Ab Initio, DFT and Semiempirical electronic structure package ---

                  #######################################################
                  #                        -***-                        #
                  #          Department of theory and spectroscopy      #
                  #               Directorship: Frank Neese             #
                  #        Max Planck Institute fuer Kohlenforschung    #
                  #                Kaiser Wilhelm Platz 1               #
                  #                 D-45470 Muelheim/Ruhr               #
                  #                      Germany                        #
                  #                                                     #
                  #                  All rights reserved                #
                  #                        -***-                        #
                  #######################################################


                         Program Version 4.1.2  - RELEASE  -


 With contributions from (in alphabetic order):
   Daniel Aravena         : Magnetic Properties
   Michael Atanasov       : Ab Initio Ligand Field Theory
   Alexander A. Auer      : GIAO ZORA
   Ute Becker             : Parallelization
   Giovanni Bistoni       : ED, Open-shell LED
   Martin Brehm           : Molecular dynamics
   Dmytro Bykov           : SCF Hessian
   Vijay G. Chilkuri      : MRCI spin determinant printing
   Dipayan Datta          : RHF DLPNO-CCSD density
   Achintya Kumar Dutta   : EOM-CC, STEOM-CC
   Dmitry Ganyushin       : Spin-Orbit,Spin-Spin,Magnetic field MRCI
   Miquel Garcia          : C-PCM Hessian
   Yang Guo               : DLPNO-NEVPT2, CIM, IAO-localization
   Andreas Hansen         : Spin unrestricted coupled pair/coupled cluster methods
   Benjamin Helmich-Paris : CASSCF linear response (MC-RPA)
   Lee Huntington         : MR-EOM, pCC
   Robert Izsak           : Overlap fitted RIJCOSX, COSX-SCS-MP3, EOM
   Christian Kollmar      : KDIIS, OOCD, Brueckner-CCSD(T), CCSD density
   Simone Kossmann        : Meta GGA functionals, TD-DFT gradient, OOMP2, MP2 Hessian
   Martin Krupicka        : AUTO-CI
   Lucas Lang             : DCDCAS
   Dagmar Lenk            : GEPOL surface, SMD
   Dimitrios Liakos       : Extrapolation schemes; parallel MDCI
   Dimitrios Manganas     : ROCIS; embedding schemes
   Dimitrios Pantazis     : SARC Basis sets
   Taras Petrenko         : DFT Hessian,TD-DFT gradient, ASA, ECA, R-Raman, ABS, FL, XAS/XES, NRVS
   Peter Pinski           : DLPNO-MP2, DLPNO-MP2 Gradient
   Christoph Reimann      : Effective Core Potentials
   Marius Retegan         : Local ZFS, SOC
   Christoph Riplinger    : Optimizer, TS searches, QM/MM, DLPNO-CCSD(T), (RO)-DLPNO pert. Triples
   Tobias Risthaus        : Range-separated hybrids, TD-DFT gradient, RPA, STAB
   Michael Roemelt        : Restricted open shell CIS
   Masaaki Saitow         : Open-shell DLPNO
   Barbara Sandhoefer     : DKH picture change effects
   Avijit Sen             : IP-ROCIS
   Kantharuban Sivalingam : CASSCF convergence, NEVPT2, FIC-MRCI
   Bernardo de Souza      : ESD, SOC TD-DFT
   Georgi Stoychev        : AutoAux, RI-MP2 NMR
   Willem Van den Heuvel  : Paramagnetic NMR
   Boris Wezisla          : Elementary symmetry handling
   Frank Wennmohs         : Technical directorship


 We gratefully acknowledge several colleagues who have allowed us to
 interface, adapt or use parts of their codes:
   Stefan Grimme, W. Hujo, H. Kruse,             : VdW corrections, initial TS optimization,
                  C. Bannwarth                     DFT functionals, gCP, sTDA/sTD-DF
   Ed Valeev                                     : LibInt (2-el integral package), F12 methods
   Garnet Chan, S. Sharma, J. Yang, R. Olivares  : DMRG
   Ulf Ekstrom                                   : XCFun DFT Library
   Mihaly Kallay                                 : mrcc  (arbitrary order and MRCC methods)
   Andreas Klamt, Michael Diedenhofen            : otool_cosmo (COSMO solvation model)
   Jiri Pittner, Ondrej Demel                    : Mk-CCSD
   Frank Weinhold                                : gennbo (NPA and NBO analysis)
   Christopher J. Cramer and Donald G. Truhlar   : smd solvation model
   Lars Goerigk                                  : TD-DFT with DH, B97 family of functionals
   V. Asgeirsson, H. Jonsson                     : NEB implementation
   FAccTs GmbH                                   : IRC, NEB, NEB-TS, Multilevel


 Your calculation uses the libint2 library for the computation of 2-el integrals
 For citations please refer to: http://libint.valeyev.net

 This ORCA versions uses:
   CBLAS   interface :  Fast vector & matrix operations
   LAPACKE interface :  Fast linear algebra routines
   SCALAPACK package :  Parallel linear algebra routines


----- Orbital basis set information -----
Your calculation utilizes the basis: aug-pc-4
   H, C-F              : F. Jensen, J. Chem. Phys. 115, 9113 (2001).
                         F. Jensen, J. Chem. Phys. 116, 7372 (2002).
                         F. Jensen, J. Chem. Phys. 117, 9234 (2002).
   Si-Cl               : F. Jensen, T. Helgaker, J. Chem. Phys. 121, 3463 (2004).
   He-B, Ne-Mg, Al, Ar : F. Jensen, J. Phys. Chem. A 111, 11198 (2007).
   K, Ca, Ga-Kr        : F. Jensen, J. Chem. Phys. 136, 094110 (2012).
   Sc-Zn               : F. Jensen, J. Chem. Phys. 138, 014107 (2013).

================================================================================
                                        WARNINGS
                       Please study these warnings very carefully!
================================================================================


INFO   : the flag for use of LIBINT has been found!

================================================================================
                                       INPUT FILE
================================================================================
NAME = licn_pbe_+0001_z.inp
|  1> !uks pbe nori aug-pc-4 grid5 nofinalgrid verytightscf
|  2> 
|  3> %maxcore 6000
|  4> 
|  5> %pal nprocs 4 end
|  6> 
|  7> %scf
|  8> 	efield 0.0, 0.0, 0.001
|  9> 	maxiter 200
| 10> end
| 11> 
| 12> * xyz 0 1
| 13> Li 1.4157454937 -0.6164252897 0.0000000000
| 14> C -0.6780148225 -0.3855159545 0.0000000000
| 15> N -0.0211306712 0.6069412443 0.0000000000
| 16> *
| 17> 
| 18>                          ****END OF INPUT****
================================================================================

                       ****************************
                       * Single Point Calculation *
                       ****************************

---------------------------------
CARTESIAN COORDINATES (ANGSTROEM)
---------------------------------
  Li     1.415745   -0.616425    0.000000
  C     -0.678015   -0.385516    0.000000
  N     -0.021131    0.606941    0.000000

----------------------------
CARTESIAN COORDINATES (A.U.)
----------------------------
  NO LB      ZA    FRAG     MASS         X           Y           Z
   0 Li    3.0000    0     6.941    2.675371   -1.164875    0.000000
   1 C     6.0000    0    12.011   -1.281262   -0.728520    0.000000
   2 N     7.0000    0    14.007   -0.039931    1.146953    0.000000

--------------------------------
INTERNAL COORDINATES (ANGSTROEM)
--------------------------------
 Li     0   0   0     0.000000000000     0.00000000     0.00000000
 C      1   0   0     2.106454695164     0.00000000     0.00000000
 N      2   1   0     1.190154645279    62.79376329     0.00000000

---------------------------
INTERNAL COORDINATES (A.U.)
---------------------------
 Li     0   0   0     0.000000000000     0.00000000     0.00000000
 C      1   0   0     3.980622487372     0.00000000     0.00000000
 N      2   1   0     2.249066336591    62.79376329     0.00000000

---------------------
BASIS SET INFORMATION
---------------------
There are 3 groups of distinct atoms

 Group   1 Type Li  : 31s9p4d3f2g contracted to 9s5p4d3f2g pattern {12121111111/51111/1111/111/11}
 Group   2 Type C   : 28s12p7d4f3g2h contracted to 9s8p7d4f3g2h pattern {11101111111/51111111/1111111/1111/111/11}
 Group   3 Type N   : 27s12p7d4f3g2h contracted to 9s8p7d4f3g2h pattern {1191111111/51111111/1111111/1111/111/11}

Atom   0Li   basis set group =>   1
Atom   1C    basis set group =>   2
Atom   2N    basis set group =>   3


           ************************************************************
           *        Program running with 4 parallel MPI-processes     *
           *              working on a common directory               *
           ************************************************************
------------------------------------------------------------------------------
                           ORCA GTO INTEGRAL CALCULATION
------------------------------------------------------------------------------

                         BASIS SET STATISTICS AND STARTUP INFO

 # of primitive gaussian shells          ...  160
 # of primitive gaussian functions       ...  468
 # of contracted shells                  ...   89
 # of contracted basis functions         ...  373
 Highest angular momentum                ...    5
 Maximum contraction depth               ...   12
 Integral package used                   ... LIBINT
 Integral threshhold            Thresh   ...  1.000e-12
 Primitive cut-off              TCut     ...  1.000e-14


------------------------------ INTEGRAL EVALUATION ----------------------------


 * One electron integrals 
 Pre-screening matrix                    ... done
 Shell pair data                         ... done (   0.002 sec)


An Electric Field will be added: 0.000e+00 0.000e+00 1.000e-03 au

  ... done adding electric field perturbation



           ************************************************************
           *        Program running with 4 parallel MPI-processes     *
           *              working on a common directory               *
           ************************************************************
-------------------------------------------------------------------------------
                                 ORCA SCF
-------------------------------------------------------------------------------

------------
SCF SETTINGS
------------
Hamiltonian:
 Density Functional     Method          .... DFT(GTOs)
 Exchange Functional    Exchange        .... PBE
   PBE kappa parameter   XKappa         ....  0.804000
   PBE mue parameter    XMuePBE         ....  0.219520
 Correlation Functional Correlation     .... PBE
   PBE beta parameter  CBetaPBE         ....  0.066725
 LDA part of GGA corr.  LDAOpt          .... PW91-LDA
 Gradients option       PostSCFGGA      .... off
   Density functional embedding theory  .... OFF
   NL short-range parameter             ....  6.400000


General Settings:
 Integral files         IntName         .... licn_pbe_+0001_z
 Hartree-Fock type      HFTyp           .... UHF
 Total Charge           Charge          ....    0
 Multiplicity           Mult            ....    1
 Number of Electrons    NEL             ....   16
 Basis Dimension        Dim             ....  373
 Nuclear Repulsion      ENuc            ....     29.0850277302 Eh

Convergence Acceleration:
 DIIS                   CNVDIIS         .... on
   Start iteration      DIISMaxIt       ....    12
   Startup error        DIISStart       ....  0.200000
   # of expansion vecs  DIISMaxEq       ....     5
   Bias factor          DIISBfac        ....   1.050
   Max. coefficient     DIISMaxC        ....  10.000
 Newton-Raphson         CNVNR           .... off
 SOSCF                  CNVSOSCF        .... off
 Level Shifting         CNVShift        .... on
   Level shift para.    LevelShift      ....    0.2500
   Turn off err/grad.   ShiftErr        ....    0.0010
 Zerner damping         CNVZerner       .... off
 Static damping         CNVDamp         .... on
   Fraction old density DampFac         ....    0.7000
   Max. Damping (<1)    DampMax         ....    0.9800
   Min. Damping (>=0)   DampMin         ....    0.0000
   Turn off err/grad.   DampErr         ....    0.1000
 Fernandez-Rico         CNVRico         .... off

SCF Procedure:
 Maximum # iterations   MaxIter         ....   200
 SCF integral mode      SCFMode         .... Direct
   Integral package                     .... LIBINT
 Reset frequency        DirectResetFreq ....    20
 Integral Threshold     Thresh          ....  1.000e-12 Eh
 Primitive CutOff       TCut            ....  1.000e-14 Eh

Convergence Tolerance:
 Convergence Check Mode ConvCheckMode   .... Total+1el-Energy
 Convergence forced     ConvForced      .... 0
 Energy Change          TolE            ....  1.000e-09 Eh
 1-El. energy change                    ....  1.000e-06 Eh
 DIIS Error             TolErr          ....  1.000e-08


Diagonalization of the overlap matrix:
Smallest eigenvalue                        ... 8.815e-07
Time for diagonalization                   ...    0.155 sec
Threshold for overlap eigenvalues          ... 1.000e-08
Number of eigenvalues below threshold      ... 0
Time for construction of square roots      ...    0.018 sec
Total time needed                          ...    0.174 sec

-------------------
DFT GRID GENERATION
-------------------

General Integration Accuracy     IntAcc      ...  5.010
Radial Grid Type                 RadialGrid  ... Gauss-Chebyshev
Angular Grid (max. acc.)         AngularGrid ... Lebedev-434
Angular grid pruning method      GridPruning ... 3 (G Style)
Weight generation scheme         WeightScheme... Becke
Basis function cutoff            BFCut       ...    1.0000e-12
Integration weight cutoff        WCut        ...    1.0000e-14
Grids for H and He will be reduced by one unit

# of grid points (after initial pruning)     ...  31650 (   0.0 sec)
# of grid points (after weights+screening)   ...  31407 (   0.0 sec)
nearest neighbour list constructed           ...    0.0 sec
Grid point re-assignment to atoms done       ...    0.0 sec
Grid point division into batches done        ...    0.2 sec
Reduced shell lists constructed in    0.3 sec

Total number of grid points                  ...    31407
Total number of batches                      ...      493
Average number of points per batch           ...       63
Average number of grid points per atom       ...    10469
Average number of shells per batch           ...    54.05 (60.73%)
Average number of basis functions per batch  ...   225.47 (60.45%)
Average number of large shells per batch     ...    46.73 (86.46%)
Average number of large basis fcns per batch ...   194.68 (86.34%)
Maximum spatial batch extension              ...  30.30, 32.58, 32.58 au
Average spatial batch extension              ...   1.55,  1.67,  1.66 au

Time for grid setup =    0.366 sec

------------------------------
INITIAL GUESS: MODEL POTENTIAL
------------------------------
Loading Hartree-Fock densities                     ... done
Calculating cut-offs                               ... done
Setting up the integral package                    ... done
Initializing the effective Hamiltonian             ... done
Starting the Coulomb interaction                   ... done (   0.0 sec)
Reading the grid                                   ... done
Mapping shells                                     ... done
Starting the XC term evaluation                    ... done (   0.5 sec)
  promolecular density results
     # of electrons  =     15.999997333
     EX              =    -13.283770326
     EC              =     -0.463352887
     EX+EC           =    -13.747123213
Transforming the Hamiltonian                       ... done (   0.0 sec)
Diagonalizing the Hamiltonian                      ... done (   0.0 sec)
Back transforming the eigenvectors                 ... done (   0.0 sec)
Now organizing SCF variables                       ... done
                      ------------------
                      INITIAL GUESS DONE (   1.0 sec)
                      ------------------
--------------
SCF ITERATIONS
--------------
ITER       Energy         Delta-E        Max-DP      RMS-DP      [F,P]     Damp
               ***  Starting incremental Fock matrix formation  ***
  0   -100.1660147133   0.000000000000 0.02001822  0.00021186  0.2748770 0.7000
  1   -100.2275797315  -0.061565018216 0.02106330  0.00016536  0.0926898 0.7000
                               ***Turning on DIIS***
  2   -100.2440266431  -0.016446911536 0.03195137  0.00029206  0.0421213 0.0000
  3   -100.2763025408  -0.032275897760 0.01665600  0.00011771  0.0445134 0.0000
  4   -100.2823597210  -0.006057180177 0.00475870  0.00003938  0.0407487 0.0000
  5   -100.2846388966  -0.002279175563 0.00263746  0.00002177  0.0116999 0.0000
  6   -100.2848404555  -0.000201558909 0.00171470  0.00001130  0.0026367 0.0000
  7   -100.2848554538  -0.000014998305 0.00126670  0.00000860  0.0007271 0.0000
  8   -100.2848586660  -0.000003212270 0.00019778  0.00000147  0.0001758 0.0000
  9   -100.2848587280  -0.000000061913 0.00002240  0.00000031  0.0001342 0.0000
 10   -100.2848587562  -0.000000028237 0.00000650  0.00000006  0.0000206 0.0000
 11   -100.2848587572  -0.000000000983 0.00000262  0.00000003  0.0000044 0.0000
 12   -100.2848587573  -0.000000000103 0.00000299  0.00000003  0.0000011 0.0000
                 **** Energy Check signals convergence ****

               *****************************************************
               *                     SUCCESS                       *
               *           SCF CONVERGED AFTER  13 CYCLES          *
               *****************************************************


----------------
TOTAL SCF ENERGY
----------------

Total Energy       :         -100.28485876 Eh           -2728.88974 eV

Components:
Nuclear Repulsion  :           29.08502773 Eh             791.44384 eV
Electronic Energy  :         -129.36988649 Eh           -3520.33358 eV
One Electron Energy:         -193.47949677 Eh           -5264.84477 eV
Two Electron Energy:           64.10961028 Eh            1744.51119 eV

Virial components:
Potential Energy   :         -200.12488120 Eh           -5445.67487 eV
Kinetic Energy     :           99.84002245 Eh            2716.78513 eV
Virial Ratio       :            2.00445549


DFT components:
N(Alpha)           :        7.999997413530 electrons
N(Beta)            :        7.999997413530 electrons
N(Total)           :       15.999994827060 electrons
E(X)               :      -13.532584114931 Eh       
E(C)               :       -0.482156904628 Eh       
E(XC)              :      -14.014741019559 Eh       
DFET-embed. en.    :        0.000000000000 Eh       

---------------
SCF CONVERGENCE
---------------

  Last Energy change         ...   -4.3912e-12  Tolerance :   1.0000e-09
  Last MAX-Density change    ...    1.4474e-06  Tolerance :   1.0000e-08
  Last RMS-Density change    ...    2.0216e-08  Tolerance :   1.0000e-09
  Last DIIS Error            ...    3.8521e-07  Tolerance :   1.0000e-08

             **** THE GBW FILE WAS UPDATED (licn_pbe_+0001_z.gbw) ****
             **** DENSITY FILE WAS UPDATED (licn_pbe_+0001_z.scfp.tmp) ****
             **** ENERGY FILE WAS UPDATED (licn_pbe_+0001_z.en.tmp) ****
----------------------
UHF SPIN CONTAMINATION
----------------------

Warning: in a DFT calculation there is little theoretical justification to 
         calculate <S**2> as in Hartree-Fock theory. We will do it anyways
         but you should keep in mind that the values have only limited relevance

Expectation value of <S**2>     :    -0.000000
Ideal value S*(S+1) for S=0.0   :     0.000000
Deviation                       :    -0.000000

----------------
ORBITAL ENERGIES
----------------
                 SPIN UP ORBITALS
  NO   OCC          E(Eh)            E(eV) 
   0   1.0000     -13.939674      -379.3178 
   1   1.0000      -9.860852      -268.3274 
   2   1.0000      -1.912411       -52.0394 
   3   1.0000      -0.778503       -21.1842 
   4   1.0000      -0.342780        -9.3275 
   5   1.0000      -0.288356        -7.8466 
   6   1.0000      -0.269427        -7.3315 
   7   1.0000      -0.216239        -5.8842 
   8   0.0000      -0.066875        -1.8198 
   9   0.0000      -0.028363        -0.7718 
  10   0.0000      -0.010831        -0.2947 
  11   0.0000       0.000948         0.0258 
  12   0.0000       0.008380         0.2280 
  13   0.0000       0.010150         0.2762 
  14   0.0000       0.018640         0.5072 
  15   0.0000       0.021321         0.5802 
  16   0.0000       0.029863         0.8126 
  17   0.0000       0.032666         0.8889 
  18   0.0000       0.036861         1.0031 
  19   0.0000       0.039768         1.0822 
  20   0.0000       0.042503         1.1566 
  21   0.0000       0.042782         1.1641 
  22   0.0000       0.046835         1.2744 
  23   0.0000       0.053959         1.4683 
  24   0.0000       0.065113         1.7718 
  25   0.0000       0.068145         1.8543 
  26   0.0000       0.071900         1.9565 
  27   0.0000       0.075679         2.0593 
  28   0.0000       0.079817         2.1719 
  29   0.0000       0.083361         2.2684 
  30   0.0000       0.088038         2.3956 
  31   0.0000       0.095560         2.6003 
  32   0.0000       0.098001         2.6667 
  33   0.0000       0.098278         2.6743 
  34   0.0000       0.105481         2.8703 
  35   0.0000       0.106596         2.9006 
  36   0.0000       0.114684         3.1207 
  37   0.0000       0.115873         3.1531 
  38   0.0000       0.127062         3.4575 
  39   0.0000       0.134637         3.6637 
  40   0.0000       0.135969         3.6999 
  41   0.0000       0.139347         3.7918 
  42   0.0000       0.141385         3.8473 
  43   0.0000       0.151391         4.1196 
  44   0.0000       0.158247         4.3061 
  45   0.0000       0.159091         4.3291 
  46   0.0000       0.160347         4.3633 
  47   0.0000       0.161542         4.3958 
  48   0.0000       0.163650         4.4531 
  49   0.0000       0.164575         4.4783 
  50   0.0000       0.169361         4.6085 
  51   0.0000       0.171132         4.6567 
  52   0.0000       0.176736         4.8092 
  53   0.0000       0.179245         4.8775 
  54   0.0000       0.184836         5.0296 
  55   0.0000       0.194128         5.2825 
  56   0.0000       0.201082         5.4717 
  57   0.0000       0.206095         5.6081 
  58   0.0000       0.209532         5.7017 
  59   0.0000       0.216908         5.9024 
  60   0.0000       0.229289         6.2393 
  61   0.0000       0.238436         6.4882 
  62   0.0000       0.256640         6.9835 
  63   0.0000       0.265813         7.2331 
  64   0.0000       0.267297         7.2735 
  65   0.0000       0.270872         7.3708 
  66   0.0000       0.272320         7.4102 
  67   0.0000       0.281082         7.6486 
  68   0.0000       0.282542         7.6884 
  69   0.0000       0.290239         7.8978 
  70   0.0000       0.296607         8.0711 
  71   0.0000       0.304804         8.2941 
  72   0.0000       0.309390         8.4189 
  73   0.0000       0.321057         8.7364 
  74   0.0000       0.328021         8.9259 
  75   0.0000       0.333708         9.0807 
  76   0.0000       0.338925         9.2226 
  77   0.0000       0.342460         9.3188 
  78   0.0000       0.356273         9.6947 
  79   0.0000       0.372213        10.1284 
  80   0.0000       0.378218        10.2918 
  81   0.0000       0.382693        10.4136 
  82   0.0000       0.386930        10.5289 
  83   0.0000       0.399244        10.8640 
  84   0.0000       0.399292        10.8653 
  85   0.0000       0.409640        11.1469 
  86   0.0000       0.420147        11.4328 
  87   0.0000       0.424532        11.5521 
  88   0.0000       0.430602        11.7173 
  89   0.0000       0.436155        11.8684 
  90   0.0000       0.447507        12.1773 
  91   0.0000       0.461758        12.5651 
  92   0.0000       0.473474        12.8839 
  93   0.0000       0.474662        12.9162 
  94   0.0000       0.490543        13.3484 
  95   0.0000       0.497674        13.5424 
  96   0.0000       0.506534        13.7835 
  97   0.0000       0.522252        14.2112 
  98   0.0000       0.534931        14.5562 
  99   0.0000       0.535495        14.5716 
 100   0.0000       0.538685        14.6584 
 101   0.0000       0.556968        15.1559 
 102   0.0000       0.564990        15.3742 
 103   0.0000       0.575319        15.6552 
 104   0.0000       0.576099        15.6764 
 105   0.0000       0.579833        15.7781 
 106   0.0000       0.592100        16.1119 
 107   0.0000       0.593267        16.1436 
 108   0.0000       0.612410        16.6645 
 109   0.0000       0.617367        16.7994 
 110   0.0000       0.626125        17.0377 
 111   0.0000       0.629405        17.1270 
 112   0.0000       0.634177        17.2568 
 113   0.0000       0.644737        17.5442 
 114   0.0000       0.652035        17.7428 
 115   0.0000       0.659928        17.9575 
 116   0.0000       0.666570        18.1383 
 117   0.0000       0.670890        18.2558 
 118   0.0000       0.677307        18.4305 
 119   0.0000       0.683914        18.6102 
 120   0.0000       0.684534        18.6271 
 121   0.0000       0.690354        18.7855 
 122   0.0000       0.690856        18.7991 
 123   0.0000       0.708556        19.2808 
 124   0.0000       0.735247        20.0071 
 125   0.0000       0.735992        20.0274 
 126   0.0000       0.760977        20.7072 
 127   0.0000       0.777617        21.1600 
 128   0.0000       0.790645        21.5145 
 129   0.0000       0.794372        21.6160 
 130   0.0000       0.795648        21.6507 
 131   0.0000       0.822692        22.3866 
 132   0.0000       0.835255        22.7284 
 133   0.0000       0.838294        22.8111 
 134   0.0000       0.842509        22.9258 
 135   0.0000       0.858191        23.3526 
 136   0.0000       0.875002        23.8100 
 137   0.0000       0.901432        24.5292 
 138   0.0000       0.908804        24.7298 
 139   0.0000       0.915958        24.9245 
 140   0.0000       0.924711        25.1627 
 141   0.0000       0.938098        25.5270 
 142   0.0000       0.944958        25.7136 
 143   0.0000       0.957431        26.0530 
 144   0.0000       0.966098        26.2889 
 145   0.0000       0.978047        26.6140 
 146   0.0000       0.997342        27.1391 
 147   0.0000       1.000022        27.2120 
 148   0.0000       1.012663        27.5560 
 149   0.0000       1.033351        28.1189 
 150   0.0000       1.036194        28.1963 
 151   0.0000       1.052431        28.6381 
 152   0.0000       1.056914        28.7601 
 153   0.0000       1.061157        28.8756 
 154   0.0000       1.092134        29.7185 
 155   0.0000       1.094331        29.7783 
 156   0.0000       1.095723        29.8161 
 157   0.0000       1.110512        30.2186 
 158   0.0000       1.132797        30.8250 
 159   0.0000       1.160034        31.5661 
 160   0.0000       1.163502        31.6605 
 161   0.0000       1.191434        32.4206 
 162   0.0000       1.199478        32.6395 
 163   0.0000       1.210725        32.9455 
 164   0.0000       1.244557        33.8661 
 165   0.0000       1.255067        34.1521 
 166   0.0000       1.260540        34.3010 
 167   0.0000       1.300613        35.3915 
 168   0.0000       1.339771        36.4570 
 169   0.0000       1.354920        36.8693 
 170   0.0000       1.406263        38.2664 
 171   0.0000       1.471767        40.0488 
 172   0.0000       1.485064        40.4106 
 173   0.0000       1.526262        41.5317 
 174   0.0000       1.570983        42.7486 
 175   0.0000       1.578684        42.9582 
 176   0.0000       1.615753        43.9669 
 177   0.0000       1.620060        44.0841 
 178   0.0000       1.655016        45.0353 
 179   0.0000       1.696870        46.1742 
 180   0.0000       1.755175        47.7607 
 181   0.0000       1.786232        48.6058 
 182   0.0000       1.804752        49.1098 
 183   0.0000       1.837406        49.9984 
 184   0.0000       1.867033        50.8045 
 185   0.0000       1.960505        53.3481 
 186   0.0000       1.996547        54.3288 
 187   0.0000       2.064506        56.1781 
 188   0.0000       2.090180        56.8767 
 189   0.0000       2.101841        57.1940 
 190   0.0000       2.122431        57.7543 
 191   0.0000       2.170701        59.0678 
 192   0.0000       2.192641        59.6648 
 193   0.0000       2.193543        59.6893 
 194   0.0000       2.220051        60.4107 
 195   0.0000       2.221944        60.4622 
 196   0.0000       2.276512        61.9470 
 197   0.0000       2.306132        62.7530 
 198   0.0000       2.345793        63.8323 
 199   0.0000       2.410132        65.5830 
 200   0.0000       2.459688        66.9315 
 201   0.0000       2.474854        67.3442 
 202   0.0000       2.493345        67.8474 
 203   0.0000       2.546647        69.2978 
 204   0.0000       2.555855        69.5484 
 205   0.0000       2.611953        71.0748 
 206   0.0000       2.614000        71.1306 
 207   0.0000       2.685421        73.0740 
 208   0.0000       2.699540        73.4582 
 209   0.0000       2.739575        74.5476 
 210   0.0000       2.748773        74.7979 
 211   0.0000       2.753135        74.9166 
 212   0.0000       2.829499        76.9946 
 213   0.0000       2.886183        78.5370 
 214   0.0000       2.916199        79.3538 
 215   0.0000       3.001114        81.6645 
 216   0.0000       3.036337        82.6229 
 217   0.0000       3.067802        83.4791 
 218   0.0000       3.072990        83.6203 
 219   0.0000       3.077677        83.7479 
 220   0.0000       3.118300        84.8533 
 221   0.0000       3.180690        86.5510 
 222   0.0000       3.199613        87.0659 
 223   0.0000       3.248141        88.3864 
 224   0.0000       3.323523        90.4377 
 225   0.0000       3.348899        91.1282 
 226   0.0000       3.448817        93.8471 
 227   0.0000       3.469191        94.4015 
 228   0.0000       3.544769        96.4581 
 229   0.0000       3.789221       103.1100 
 230   0.0000       3.855374       104.9101 
 231   0.0000       4.055239       110.3487 
 232   0.0000       4.126210       112.2799 
 233   0.0000       4.173007       113.5533 
 234   0.0000       4.183516       113.8393 
 235   0.0000       4.238206       115.3274 
 236   0.0000       4.252921       115.7279 
 237   0.0000       4.355480       118.5186 
 238   0.0000       4.438607       120.7806 
 239   0.0000       4.537000       123.4581 
 240   0.0000       4.550632       123.8290 
 241   0.0000       4.603004       125.2541 
 242   0.0000       4.617075       125.6370 
 243   0.0000       4.748730       129.2195 
 244   0.0000       4.768144       129.7478 
 245   0.0000       4.804790       130.7450 
 246   0.0000       4.831701       131.4773 
 247   0.0000       4.846895       131.8907 
 248   0.0000       4.872311       132.5823 
 249   0.0000       4.901517       133.3770 
 250   0.0000       4.965142       135.1084 
 251   0.0000       5.053180       137.5040 
 252   0.0000       5.139023       139.8399 
 253   0.0000       5.239983       142.5872 
 254   0.0000       5.256599       143.0393 
 255   0.0000       5.270867       143.4276 
 256   0.0000       5.328123       144.9856 
 257   0.0000       5.343461       145.4030 
 258   0.0000       5.407658       147.1499 
 259   0.0000       5.437490       147.9616 
 260   0.0000       5.543438       150.8446 
 261   0.0000       5.659591       154.0053 
 262   0.0000       5.668336       154.2433 
 263   0.0000       5.832905       158.7214 
 264   0.0000       5.923785       161.1944 
 265   0.0000       6.033909       164.1910 
 266   0.0000       6.044154       164.4698 
 267   0.0000       6.093715       165.8184 
 268   0.0000       6.276196       170.7840 
 269   0.0000       6.318031       171.9224 
 270   0.0000       6.414249       174.5406 
 271   0.0000       6.507897       177.0889 
 272   0.0000       6.655707       181.1110 
 273   0.0000       6.657442       181.1582 
 274   0.0000       6.815204       185.4511 
 275   0.0000       6.833802       185.9572 
 276   0.0000       6.905262       187.9017 
 277   0.0000       7.070638       192.4018 
 278   0.0000       7.102670       193.2735 
 279   0.0000       7.329626       199.4493 
 280   0.0000       7.858628       213.8442 
 281   0.0000       8.128168       221.1787 
 282   0.0000       8.270120       225.0414 
 283   0.0000       8.334487       226.7929 
 284   0.0000       9.175769       249.6854 
 285   0.0000       9.438038       256.8221 
 286   0.0000       9.782371       266.1919 
 287   0.0000      10.174314       276.8572 
 288   0.0000      10.189254       277.2637 
 289   0.0000      10.233279       278.4617 
 290   0.0000      10.274763       279.5905 
 291   0.0000      10.342842       281.4430 
 292   0.0000      10.431856       283.8652 
 293   0.0000      10.432305       283.8775 
 294   0.0000      10.448255       284.3115 
 295   0.0000      10.523353       286.3550 
 296   0.0000      10.625810       289.1430 
 297   0.0000      10.632282       289.3191 
 298   0.0000      10.735251       292.1210 
 299   0.0000      10.841912       295.0234 
 300   0.0000      10.844650       295.0979 
 301   0.0000      10.895847       296.4911 
 302   0.0000      11.050957       300.7118 
 303   0.0000      11.090863       301.7977 
 304   0.0000      11.386477       309.8418 
 305   0.0000      11.476003       312.2779 
 306   0.0000      11.483225       312.4744 
 307   0.0000      11.508450       313.1609 
 308   0.0000      11.526410       313.6496 
 309   0.0000      11.569821       314.8308 
 310   0.0000      11.577442       315.0382 
 311   0.0000      11.584865       315.2402 
 312   0.0000      11.632092       316.5253 
 313   0.0000      11.668324       317.5112 
 314   0.0000      11.722379       318.9821 
 315   0.0000      11.723779       319.0203 
 316   0.0000      11.835868       322.0703 
 317   0.0000      11.915209       324.2293 
 318   0.0000      11.950068       325.1779 
 319   0.0000      12.098697       329.2223 
 320   0.0000      12.122998       329.8836 
 321   0.0000      12.124966       329.9371 
 322   0.0000      12.269581       333.8723 
 323   0.0000      12.459225       339.0328 
 324   0.0000      12.507620       340.3496 
 325   0.0000      12.651571       344.2667 
 326   0.0000      12.725158       346.2691 
 327   0.0000      12.846594       349.5736 
 328   0.0000      12.964695       352.7873 
 329   0.0000      12.970338       352.9408 
 330   0.0000      13.537051       368.3619 
 331   0.0000      13.705042       372.9332 
 332   0.0000      13.768705       374.6655 
 333   0.0000      14.528411       395.3382 
 334   0.0000      14.561506       396.2387 
 335   0.0000      14.645919       398.5357 
 336   0.0000      14.751781       401.4164 
 337   0.0000      14.761735       401.6872 
 338   0.0000      15.005170       408.3114 
 339   0.0000      15.063086       409.8874 
 340   0.0000      15.374582       418.3636 
 341   0.0000      15.431827       419.9214 
 342   0.0000      15.593882       424.3311 
 343   0.0000      15.810265       430.2192 
 344   0.0000      15.890870       432.4126 
 345   0.0000      16.020479       435.9394 
 346   0.0000      16.728510       455.2059 
 347   0.0000      16.888653       459.5636 
 348   0.0000      16.971041       461.8055 
 349   0.0000      17.141484       466.4435 
 350   0.0000      17.685561       481.2486 
 351   0.0000      17.728049       482.4047 
 352   0.0000      17.771470       483.5863 
 353   0.0000      18.652679       507.5652 
 354   0.0000      19.070369       518.9311 
 355   0.0000      19.119191       520.2596 
 356   0.0000      21.469445       584.2133 
 357   0.0000      24.013143       653.4309 
 358   0.0000      26.138231       711.2574 
 359   0.0000      26.413976       718.7608 
 360   0.0000      27.945217       760.4280 
 361   0.0000      31.962509       869.7441 
 362   0.0000      32.050949       872.1507 
 363   0.0000      32.895892       895.1427 
 364   0.0000      32.913989       895.6352 
 365   0.0000      34.427408       936.8174 
 366   0.0000      47.761567      1299.6583 
 367   0.0000      47.882732      1302.9554 
 368   0.0000      48.013675      1306.5185 
 369   0.0000      48.069494      1308.0374 
 370   0.0000      48.952168      1332.0562 
 371   0.0000      74.272409      2021.0550 
 372   0.0000     104.191466      2835.1939 

                 SPIN DOWN ORBITALS
  NO   OCC          E(Eh)            E(eV) 
   0   1.0000     -13.939674      -379.3178 
   1   1.0000      -9.860852      -268.3274 
   2   1.0000      -1.912411       -52.0394 
   3   1.0000      -0.778503       -21.1842 
   4   1.0000      -0.342780        -9.3275 
   5   1.0000      -0.288356        -7.8466 
   6   1.0000      -0.269427        -7.3315 
   7   1.0000      -0.216239        -5.8842 
   8   0.0000      -0.066875        -1.8198 
   9   0.0000      -0.028363        -0.7718 
  10   0.0000      -0.010831        -0.2947 
  11   0.0000       0.000948         0.0258 
  12   0.0000       0.008380         0.2280 
  13   0.0000       0.010150         0.2762 
  14   0.0000       0.018640         0.5072 
  15   0.0000       0.021321         0.5802 
  16   0.0000       0.029863         0.8126 
  17   0.0000       0.032666         0.8889 
  18   0.0000       0.036861         1.0031 
  19   0.0000       0.039768         1.0822 
  20   0.0000       0.042503         1.1566 
  21   0.0000       0.042782         1.1641 
  22   0.0000       0.046835         1.2744 
  23   0.0000       0.053959         1.4683 
  24   0.0000       0.065113         1.7718 
  25   0.0000       0.068145         1.8543 
  26   0.0000       0.071900         1.9565 
  27   0.0000       0.075679         2.0593 
  28   0.0000       0.079817         2.1719 
  29   0.0000       0.083361         2.2684 
  30   0.0000       0.088038         2.3956 
  31   0.0000       0.095560         2.6003 
  32   0.0000       0.098001         2.6667 
  33   0.0000       0.098278         2.6743 
  34   0.0000       0.105481         2.8703 
  35   0.0000       0.106596         2.9006 
  36   0.0000       0.114684         3.1207 
  37   0.0000       0.115873         3.1531 
  38   0.0000       0.127062         3.4575 
  39   0.0000       0.134637         3.6637 
  40   0.0000       0.135969         3.6999 
  41   0.0000       0.139347         3.7918 
  42   0.0000       0.141385         3.8473 
  43   0.0000       0.151391         4.1196 
  44   0.0000       0.158247         4.3061 
  45   0.0000       0.159091         4.3291 
  46   0.0000       0.160347         4.3633 
  47   0.0000       0.161542         4.3958 
  48   0.0000       0.163650         4.4531 
  49   0.0000       0.164575         4.4783 
  50   0.0000       0.169361         4.6085 
  51   0.0000       0.171132         4.6567 
  52   0.0000       0.176736         4.8092 
  53   0.0000       0.179245         4.8775 
  54   0.0000       0.184836         5.0296 
  55   0.0000       0.194128         5.2825 
  56   0.0000       0.201082         5.4717 
  57   0.0000       0.206095         5.6081 
  58   0.0000       0.209532         5.7017 
  59   0.0000       0.216908         5.9024 
  60   0.0000       0.229289         6.2393 
  61   0.0000       0.238436         6.4882 
  62   0.0000       0.256640         6.9835 
  63   0.0000       0.265813         7.2331 
  64   0.0000       0.267297         7.2735 
  65   0.0000       0.270872         7.3708 
  66   0.0000       0.272320         7.4102 
  67   0.0000       0.281082         7.6486 
  68   0.0000       0.282542         7.6884 
  69   0.0000       0.290239         7.8978 
  70   0.0000       0.296607         8.0711 
  71   0.0000       0.304804         8.2941 
  72   0.0000       0.309390         8.4189 
  73   0.0000       0.321057         8.7364 
  74   0.0000       0.328021         8.9259 
  75   0.0000       0.333708         9.0807 
  76   0.0000       0.338925         9.2226 
  77   0.0000       0.342460         9.3188 
  78   0.0000       0.356273         9.6947 
  79   0.0000       0.372213        10.1284 
  80   0.0000       0.378218        10.2918 
  81   0.0000       0.382693        10.4136 
  82   0.0000       0.386930        10.5289 
  83   0.0000       0.399244        10.8640 
  84   0.0000       0.399292        10.8653 
  85   0.0000       0.409640        11.1469 
  86   0.0000       0.420147        11.4328 
  87   0.0000       0.424532        11.5521 
  88   0.0000       0.430602        11.7173 
  89   0.0000       0.436155        11.8684 
  90   0.0000       0.447507        12.1773 
  91   0.0000       0.461758        12.5651 
  92   0.0000       0.473474        12.8839 
  93   0.0000       0.474662        12.9162 
  94   0.0000       0.490543        13.3484 
  95   0.0000       0.497674        13.5424 
  96   0.0000       0.506534        13.7835 
  97   0.0000       0.522252        14.2112 
  98   0.0000       0.534931        14.5562 
  99   0.0000       0.535495        14.5716 
 100   0.0000       0.538685        14.6584 
 101   0.0000       0.556968        15.1559 
 102   0.0000       0.564990        15.3742 
 103   0.0000       0.575319        15.6552 
 104   0.0000       0.576099        15.6764 
 105   0.0000       0.579833        15.7781 
 106   0.0000       0.592100        16.1119 
 107   0.0000       0.593267        16.1436 
 108   0.0000       0.612410        16.6645 
 109   0.0000       0.617367        16.7994 
 110   0.0000       0.626125        17.0377 
 111   0.0000       0.629405        17.1270 
 112   0.0000       0.634177        17.2568 
 113   0.0000       0.644737        17.5442 
 114   0.0000       0.652035        17.7428 
 115   0.0000       0.659928        17.9575 
 116   0.0000       0.666570        18.1383 
 117   0.0000       0.670890        18.2558 
 118   0.0000       0.677307        18.4305 
 119   0.0000       0.683914        18.6102 
 120   0.0000       0.684534        18.6271 
 121   0.0000       0.690354        18.7855 
 122   0.0000       0.690856        18.7991 
 123   0.0000       0.708556        19.2808 
 124   0.0000       0.735247        20.0071 
 125   0.0000       0.735992        20.0274 
 126   0.0000       0.760977        20.7072 
 127   0.0000       0.777617        21.1600 
 128   0.0000       0.790645        21.5145 
 129   0.0000       0.794372        21.6160 
 130   0.0000       0.795648        21.6507 
 131   0.0000       0.822692        22.3866 
 132   0.0000       0.835255        22.7284 
 133   0.0000       0.838294        22.8111 
 134   0.0000       0.842509        22.9258 
 135   0.0000       0.858191        23.3526 
 136   0.0000       0.875002        23.8100 
 137   0.0000       0.901432        24.5292 
 138   0.0000       0.908804        24.7298 
 139   0.0000       0.915958        24.9245 
 140   0.0000       0.924711        25.1627 
 141   0.0000       0.938098        25.5270 
 142   0.0000       0.944958        25.7136 
 143   0.0000       0.957431        26.0530 
 144   0.0000       0.966098        26.2889 
 145   0.0000       0.978047        26.6140 
 146   0.0000       0.997342        27.1391 
 147   0.0000       1.000022        27.2120 
 148   0.0000       1.012663        27.5560 
 149   0.0000       1.033351        28.1189 
 150   0.0000       1.036194        28.1963 
 151   0.0000       1.052431        28.6381 
 152   0.0000       1.056914        28.7601 
 153   0.0000       1.061157        28.8756 
 154   0.0000       1.092134        29.7185 
 155   0.0000       1.094331        29.7783 
 156   0.0000       1.095723        29.8161 
 157   0.0000       1.110512        30.2186 
 158   0.0000       1.132797        30.8250 
 159   0.0000       1.160034        31.5661 
 160   0.0000       1.163502        31.6605 
 161   0.0000       1.191434        32.4206 
 162   0.0000       1.199478        32.6395 
 163   0.0000       1.210725        32.9455 
 164   0.0000       1.244557        33.8661 
 165   0.0000       1.255067        34.1521 
 166   0.0000       1.260540        34.3010 
 167   0.0000       1.300613        35.3915 
 168   0.0000       1.339771        36.4570 
 169   0.0000       1.354920        36.8693 
 170   0.0000       1.406263        38.2664 
 171   0.0000       1.471767        40.0488 
 172   0.0000       1.485064        40.4106 
 173   0.0000       1.526262        41.5317 
 174   0.0000       1.570983        42.7486 
 175   0.0000       1.578684        42.9582 
 176   0.0000       1.615753        43.9669 
 177   0.0000       1.620060        44.0841 
 178   0.0000       1.655016        45.0353 
 179   0.0000       1.696870        46.1742 
 180   0.0000       1.755175        47.7607 
 181   0.0000       1.786232        48.6058 
 182   0.0000       1.804752        49.1098 
 183   0.0000       1.837406        49.9984 
 184   0.0000       1.867033        50.8045 
 185   0.0000       1.960505        53.3481 
 186   0.0000       1.996547        54.3288 
 187   0.0000       2.064506        56.1781 
 188   0.0000       2.090180        56.8767 
 189   0.0000       2.101841        57.1940 
 190   0.0000       2.122431        57.7543 
 191   0.0000       2.170701        59.0678 
 192   0.0000       2.192641        59.6648 
 193   0.0000       2.193543        59.6893 
 194   0.0000       2.220051        60.4107 
 195   0.0000       2.221944        60.4622 
 196   0.0000       2.276512        61.9470 
 197   0.0000       2.306132        62.7530 
 198   0.0000       2.345793        63.8323 
 199   0.0000       2.410132        65.5830 
 200   0.0000       2.459688        66.9315 
 201   0.0000       2.474854        67.3442 
 202   0.0000       2.493345        67.8474 
 203   0.0000       2.546647        69.2978 
 204   0.0000       2.555855        69.5484 
 205   0.0000       2.611953        71.0748 
 206   0.0000       2.614000        71.1306 
 207   0.0000       2.685421        73.0740 
 208   0.0000       2.699540        73.4582 
 209   0.0000       2.739575        74.5476 
 210   0.0000       2.748773        74.7979 
 211   0.0000       2.753135        74.9166 
 212   0.0000       2.829499        76.9946 
 213   0.0000       2.886183        78.5370 
 214   0.0000       2.916199        79.3538 
 215   0.0000       3.001114        81.6645 
 216   0.0000       3.036337        82.6229 
 217   0.0000       3.067802        83.4791 
 218   0.0000       3.072990        83.6203 
 219   0.0000       3.077677        83.7479 
 220   0.0000       3.118300        84.8533 
 221   0.0000       3.180690        86.5510 
 222   0.0000       3.199613        87.0659 
 223   0.0000       3.248141        88.3864 
 224   0.0000       3.323523        90.4377 
 225   0.0000       3.348899        91.1282 
 226   0.0000       3.448817        93.8471 
 227   0.0000       3.469191        94.4015 
 228   0.0000       3.544769        96.4581 
 229   0.0000       3.789221       103.1100 
 230   0.0000       3.855374       104.9101 
 231   0.0000       4.055239       110.3487 
 232   0.0000       4.126210       112.2799 
 233   0.0000       4.173007       113.5533 
 234   0.0000       4.183516       113.8393 
 235   0.0000       4.238206       115.3274 
 236   0.0000       4.252921       115.7279 
 237   0.0000       4.355480       118.5186 
 238   0.0000       4.438607       120.7806 
 239   0.0000       4.537000       123.4581 
 240   0.0000       4.550632       123.8290 
 241   0.0000       4.603004       125.2541 
 242   0.0000       4.617075       125.6370 
 243   0.0000       4.748730       129.2195 
 244   0.0000       4.768144       129.7478 
 245   0.0000       4.804790       130.7450 
 246   0.0000       4.831701       131.4773 
 247   0.0000       4.846895       131.8907 
 248   0.0000       4.872311       132.5823 
 249   0.0000       4.901517       133.3770 
 250   0.0000       4.965142       135.1084 
 251   0.0000       5.053180       137.5040 
 252   0.0000       5.139023       139.8399 
 253   0.0000       5.239983       142.5872 
 254   0.0000       5.256599       143.0393 
 255   0.0000       5.270867       143.4276 
 256   0.0000       5.328123       144.9856 
 257   0.0000       5.343461       145.4030 
 258   0.0000       5.407658       147.1499 
 259   0.0000       5.437490       147.9616 
 260   0.0000       5.543438       150.8446 
 261   0.0000       5.659591       154.0053 
 262   0.0000       5.668336       154.2433 
 263   0.0000       5.832905       158.7214 
 264   0.0000       5.923785       161.1944 
 265   0.0000       6.033909       164.1910 
 266   0.0000       6.044154       164.4698 
 267   0.0000       6.093715       165.8184 
 268   0.0000       6.276196       170.7840 
 269   0.0000       6.318031       171.9224 
 270   0.0000       6.414249       174.5406 
 271   0.0000       6.507897       177.0889 
 272   0.0000       6.655707       181.1110 
 273   0.0000       6.657442       181.1582 
 274   0.0000       6.815204       185.4511 
 275   0.0000       6.833802       185.9572 
 276   0.0000       6.905262       187.9017 
 277   0.0000       7.070638       192.4018 
 278   0.0000       7.102670       193.2735 
 279   0.0000       7.329626       199.4493 
 280   0.0000       7.858628       213.8442 
 281   0.0000       8.128168       221.1787 
 282   0.0000       8.270120       225.0414 
 283   0.0000       8.334487       226.7929 
 284   0.0000       9.175769       249.6854 
 285   0.0000       9.438038       256.8221 
 286   0.0000       9.782371       266.1919 
 287   0.0000      10.174314       276.8572 
 288   0.0000      10.189254       277.2637 
 289   0.0000      10.233279       278.4617 
 290   0.0000      10.274763       279.5905 
 291   0.0000      10.342842       281.4430 
 292   0.0000      10.431856       283.8652 
 293   0.0000      10.432305       283.8775 
 294   0.0000      10.448255       284.3115 
 295   0.0000      10.523353       286.3550 
 296   0.0000      10.625810       289.1430 
 297   0.0000      10.632282       289.3191 
 298   0.0000      10.735251       292.1210 
 299   0.0000      10.841912       295.0234 
 300   0.0000      10.844650       295.0979 
 301   0.0000      10.895847       296.4911 
 302   0.0000      11.050957       300.7118 
 303   0.0000      11.090863       301.7977 
 304   0.0000      11.386477       309.8418 
 305   0.0000      11.476003       312.2779 
 306   0.0000      11.483225       312.4744 
 307   0.0000      11.508450       313.1609 
 308   0.0000      11.526410       313.6496 
 309   0.0000      11.569821       314.8308 
 310   0.0000      11.577442       315.0382 
 311   0.0000      11.584865       315.2402 
 312   0.0000      11.632092       316.5253 
 313   0.0000      11.668324       317.5112 
 314   0.0000      11.722379       318.9821 
 315   0.0000      11.723779       319.0203 
 316   0.0000      11.835868       322.0703 
 317   0.0000      11.915209       324.2293 
 318   0.0000      11.950068       325.1779 
 319   0.0000      12.098697       329.2223 
 320   0.0000      12.122998       329.8836 
 321   0.0000      12.124966       329.9371 
 322   0.0000      12.269581       333.8723 
 323   0.0000      12.459225       339.0328 
 324   0.0000      12.507620       340.3496 
 325   0.0000      12.651571       344.2667 
 326   0.0000      12.725158       346.2691 
 327   0.0000      12.846594       349.5736 
 328   0.0000      12.964695       352.7873 
 329   0.0000      12.970338       352.9408 
 330   0.0000      13.537051       368.3619 
 331   0.0000      13.705042       372.9332 
 332   0.0000      13.768705       374.6655 
 333   0.0000      14.528411       395.3382 
 334   0.0000      14.561506       396.2387 
 335   0.0000      14.645919       398.5357 
 336   0.0000      14.751781       401.4164 
 337   0.0000      14.761735       401.6872 
 338   0.0000      15.005170       408.3114 
 339   0.0000      15.063086       409.8874 
 340   0.0000      15.374582       418.3636 
 341   0.0000      15.431827       419.9214 
 342   0.0000      15.593882       424.3311 
 343   0.0000      15.810265       430.2192 
 344   0.0000      15.890870       432.4126 
 345   0.0000      16.020479       435.9394 
 346   0.0000      16.728510       455.2059 
 347   0.0000      16.888653       459.5636 
 348   0.0000      16.971041       461.8055 
 349   0.0000      17.141484       466.4435 
 350   0.0000      17.685561       481.2486 
 351   0.0000      17.728049       482.4047 
 352   0.0000      17.771470       483.5863 
 353   0.0000      18.652679       507.5652 
 354   0.0000      19.070369       518.9311 
 355   0.0000      19.119191       520.2596 
 356   0.0000      21.469445       584.2133 
 357   0.0000      24.013143       653.4309 
 358   0.0000      26.138231       711.2574 
 359   0.0000      26.413976       718.7608 
 360   0.0000      27.945217       760.4280 
 361   0.0000      31.962509       869.7441 
 362   0.0000      32.050949       872.1507 
 363   0.0000      32.895892       895.1427 
 364   0.0000      32.913989       895.6352 
 365   0.0000      34.427408       936.8174 
 366   0.0000      47.761567      1299.6583 
 367   0.0000      47.882732      1302.9554 
 368   0.0000      48.013675      1306.5185 
 369   0.0000      48.069494      1308.0374 
 370   0.0000      48.952168      1332.0562 
 371   0.0000      74.272409      2021.0550 
 372   0.0000     104.191466      2835.1939 

                    ********************************
                    * MULLIKEN POPULATION ANALYSIS *
                    ********************************

--------------------------------------------
MULLIKEN ATOMIC CHARGES AND SPIN POPULATIONS
--------------------------------------------
   0 Li:    0.703485    0.000000
   1 C :   -0.385960    0.000000
   2 N :   -0.317526   -0.000000
Sum of atomic charges         :   -0.0000000
Sum of atomic spin populations:   -0.0000000

-----------------------------------------------------
MULLIKEN REDUCED ORBITAL CHARGES AND SPIN POPULATIONS
-----------------------------------------------------
CHARGE
  0 Lis       :     2.065721  s :     2.065721
      pz      :     0.052033  p :     0.174999
      px      :     0.066501
      py      :     0.056465
      dz2     :     0.003035  d :     0.046344
      dxz     :     0.014148
      dyz     :     0.003549
      dx2y2   :     0.013357
      dxy     :     0.012256
      f0      :     0.001285  f :     0.009081
      f+1     :     0.000937
      f-1     :     0.000342
      f+2     :     0.000542
      f-2     :     0.001161
      f+3     :     0.002577
      f-3     :     0.002237
      g0      :     0.000062  g :     0.000370
      g+1     :    -0.000013
      g-1     :     0.000016
      g+2     :     0.000079
      g-2     :     0.000053
      g+3     :    -0.000006
      g-3     :     0.000034
      g+4     :     0.000035
      g-4     :     0.000109
  1 C s       :     3.826146  s :     3.826146
      pz      :     0.701209  p :     2.487160
      px      :     0.792272
      py      :     0.993679
      dz2     :     0.005437  d :     0.066609
      dxz     :     0.008344
      dyz     :     0.016739
      dx2y2   :     0.019803
      dxy     :     0.016286
      f0      :     0.001061  f :     0.005454
      f+1     :     0.000368
      f-1     :     0.000360
      f+2     :     0.000072
      f-2     :     0.001229
      f+3     :     0.000186
      f-3     :     0.002179
      g0      :     0.000003  g :     0.000606
      g+1     :     0.000043
      g-1     :     0.000143
      g+2     :    -0.000012
      g-2     :     0.000060
      g+3     :     0.000178
      g-3     :     0.000007
      g+4     :    -0.000077
      g-4     :     0.000262
      h0      :     0.000003  h :    -0.000016
      h+1     :    -0.000004
      h-1     :     0.000003
      h+2     :     0.000001
      h-2     :     0.000008
      h+3     :    -0.000024
      h-3     :     0.000012
      h+4     :     0.000006
      h-4     :     0.000002
      h+5     :    -0.000025
      h-5     :     0.000002
  2 N s       :     3.853340  s :     3.853340
      pz      :     1.179403  p :     3.428114
      px      :     1.133417
      py      :     1.115294
      dz2     :     0.005029  d :     0.034407
      dxz     :     0.001514
      dyz     :     0.015440
      dx2y2   :     0.009672
      dxy     :     0.002752
      f0      :     0.000819  f :     0.001050
      f+1     :     0.000528
      f-1     :     0.000376
      f+2     :     0.000332
      f-2     :     0.000471
      f+3     :    -0.003097
      f-3     :     0.001622
      g0      :     0.000025  g :     0.000407
      g+1     :     0.000052
      g-1     :     0.000090
      g+2     :     0.000123
      g-2     :     0.000002
      g+3     :     0.000119
      g-3     :    -0.000034
      g+4     :     0.000278
      g-4     :    -0.000248
      h0      :    -0.000000  h :     0.000206
      h+1     :    -0.000005
      h-1     :     0.000013
      h+2     :     0.000004
      h-2     :     0.000012
      h+3     :    -0.000008
      h-3     :     0.000045
      h+4     :    -0.000009
      h-4     :     0.000004
      h+5     :     0.000101
      h-5     :     0.000051

SPIN
  0 Lis       :     0.000000  s :     0.000000
      pz      :    -0.000000  p :     0.000000
      px      :     0.000000
      py      :     0.000000
      dz2     :     0.000000  d :     0.000000
      dxz     :    -0.000000
      dyz     :    -0.000000
      dx2y2   :     0.000000
      dxy     :     0.000000
      f0      :    -0.000000  f :     0.000000
      f+1     :     0.000000
      f-1     :     0.000000
      f+2     :    -0.000000
      f-2     :    -0.000000
      f+3     :     0.000000
      f-3     :     0.000000
      g0      :     0.000000  g :     0.000000
      g+1     :    -0.000000
      g-1     :     0.000000
      g+2     :    -0.000000
      g-2     :     0.000000
      g+3     :    -0.000000
      g-3     :     0.000000
      g+4     :     0.000000
      g-4     :    -0.000000
  1 C s       :     0.000000  s :     0.000000
      pz      :    -0.000000  p :     0.000000
      px      :     0.000000
      py      :     0.000000
      dz2     :     0.000000  d :     0.000000
      dxz     :     0.000000
      dyz     :    -0.000000
      dx2y2   :     0.000000
      dxy     :     0.000000
      f0      :     0.000000  f :     0.000000
      f+1     :    -0.000000
      f-1     :     0.000000
      f+2     :    -0.000000
      f-2     :     0.000000
      f+3     :     0.000000
      f-3     :    -0.000000
      g0      :     0.000000  g :     0.000000
      g+1     :    -0.000000
      g-1     :    -0.000000
      g+2     :    -0.000000
      g-2     :     0.000000
      g+3     :    -0.000000
      g-3     :    -0.000000
      g+4     :     0.000000
      g-4     :     0.000000
      h0      :    -0.000000  h :    -0.000000
      h+1     :    -0.000000
      h-1     :     0.000000
      h+2     :    -0.000000
      h-2     :     0.000000
      h+3     :     0.000000
      h-3     :    -0.000000
      h+4     :    -0.000000
      h-4     :     0.000000
      h+5     :     0.000000
      h-5     :    -0.000000
  2 N s       :    -0.000000  s :    -0.000000
      pz      :     0.000000  p :    -0.000000
      px      :    -0.000000
      py      :    -0.000000
      dz2     :    -0.000000  d :    -0.000000
      dxz     :     0.000000
      dyz     :     0.000000
      dx2y2   :    -0.000000
      dxy     :    -0.000000
      f0      :     0.000000  f :    -0.000000
      f+1     :     0.000000
      f-1     :    -0.000000
      f+2     :    -0.000000
      f-2     :     0.000000
      f+3     :    -0.000000
      f-3     :     0.000000
      g0      :    -0.000000  g :    -0.000000
      g+1     :     0.000000
      g-1     :     0.000000
      g+2     :     0.000000
      g-2     :     0.000000
      g+3     :     0.000000
      g-3     :     0.000000
      g+4     :     0.000000
      g-4     :    -0.000000
      h0      :     0.000000  h :    -0.000000
      h+1     :     0.000000
      h-1     :    -0.000000
      h+2     :    -0.000000
      h-2     :    -0.000000
      h+3     :    -0.000000
      h-3     :     0.000000
      h+4     :     0.000000
      h-4     :    -0.000000
      h+5     :    -0.000000
      h-5     :     0.000000


                     *******************************
                     * LOEWDIN POPULATION ANALYSIS *
                     *******************************

-------------------------------------------
LOEWDIN ATOMIC CHARGES AND SPIN POPULATIONS
-------------------------------------------
   0 Li:    0.106557    0.000000
   1 C :   -0.113616    0.000000
   2 N :    0.007059   -0.000000

----------------------------------------------------
LOEWDIN REDUCED ORBITAL CHARGES AND SPIN POPULATIONS
----------------------------------------------------
CHARGE
  0 Lis       :     2.066631  s :     2.066631
      pz      :     0.050699  p :     0.351120
      px      :     0.210277
      py      :     0.090144
      dz2     :     0.041318  d :     0.275181
      dxz     :     0.048407
      dyz     :     0.012261
      dx2y2   :     0.085525
      dxy     :     0.087671
      f0      :     0.020111  f :     0.175593
      f+1     :     0.020569
      f-1     :     0.010314
      f+2     :     0.007392
      f-2     :     0.015602
      f+3     :     0.058214
      f-3     :     0.043391
      g0      :     0.001882  g :     0.024918
      g+1     :     0.003140
      g-1     :     0.000854
      g+2     :     0.002342
      g-2     :     0.002679
      g+3     :     0.000074
      g-3     :     0.001336
      g+4     :     0.005799
      g-4     :     0.006813
  1 C s       :     3.006848  s :     3.006848
      pz      :     0.640185  p :     2.517633
      px      :     0.813509
      py      :     1.063939
      dz2     :     0.051756  d :     0.408870
      dxz     :     0.035428
      dyz     :     0.060420
      dx2y2   :     0.121990
      dxy     :     0.139277
      f0      :     0.015314  f :     0.129698
      f+1     :     0.008778
      f-1     :     0.013731
      f+2     :     0.003186
      f-2     :     0.019371
      f+3     :     0.033538
      f-3     :     0.035780
      g0      :     0.002217  g :     0.038263
      g+1     :     0.002265
      g-1     :     0.004027
      g+2     :     0.003464
      g-2     :     0.003207
      g+3     :     0.003943
      g-3     :     0.000134
      g+4     :     0.011037
      g-4     :     0.007970
      h0      :     0.000441  h :     0.012304
      h+1     :     0.001545
      h-1     :     0.000302
      h+2     :     0.000038
      h-2     :     0.000475
      h+3     :     0.002506
      h-3     :     0.000418
      h+4     :     0.000106
      h-4     :     0.000285
      h+5     :     0.004782
      h-5     :     0.001406
  2 N s       :     3.105440  s :     3.105440
      pz      :     0.980354  p :     3.441311
      px      :     1.138603
      py      :     1.322353
      dz2     :     0.045615  d :     0.287301
      dxz     :     0.010403
      dyz     :     0.036707
      dx2y2   :     0.060694
      dxy     :     0.133883
      f0      :     0.008959  f :     0.098933
      f+1     :     0.009525
      f-1     :     0.013744
      f+2     :     0.001841
      f-2     :     0.009284
      f+3     :     0.028625
      f-3     :     0.026955
      g0      :     0.003678  g :     0.039898
      g+1     :     0.000605
      g-1     :     0.002872
      g+2     :     0.001451
      g-2     :     0.008154
      g+3     :     0.001891
      g-3     :     0.000356
      g+4     :     0.015872
      g-4     :     0.005019
      h0      :     0.000378  h :     0.020058
      h+1     :     0.002255
      h-1     :     0.001922
      h+2     :     0.000064
      h-2     :     0.000218
      h+3     :     0.001947
      h-3     :     0.003575
      h+4     :     0.000348
      h-4     :     0.000235
      h+5     :     0.006439
      h-5     :     0.002678

SPIN
  0 Lis       :     0.000000  s :     0.000000
      pz      :     0.000000  p :     0.000000
      px      :     0.000000
      py      :     0.000000
      dz2     :    -0.000000  d :     0.000000
      dxz     :    -0.000000
      dyz     :    -0.000000
      dx2y2   :     0.000000
      dxy     :     0.000000
      f0      :    -0.000000  f :    -0.000000
      f+1     :    -0.000000
      f-1     :     0.000000
      f+2     :     0.000000
      f-2     :     0.000000
      f+3     :     0.000000
      f-3     :    -0.000000
      g0      :    -0.000000  g :    -0.000000
      g+1     :     0.000000
      g-1     :     0.000000
      g+2     :    -0.000000
      g-2     :     0.000000
      g+3     :    -0.000000
      g-3     :     0.000000
      g+4     :    -0.000000
      g-4     :     0.000000
  1 C s       :     0.000000  s :     0.000000
      pz      :    -0.000000  p :     0.000000
      px      :     0.000000
      py      :     0.000000
      dz2     :    -0.000000  d :    -0.000000
      dxz     :     0.000000
      dyz     :    -0.000000
      dx2y2   :    -0.000000
      dxy     :    -0.000000
      f0      :    -0.000000  f :     0.000000
      f+1     :     0.000000
      f-1     :     0.000000
      f+2     :     0.000000
      f-2     :     0.000000
      f+3     :     0.000000
      f-3     :     0.000000
      g0      :     0.000000  g :    -0.000000
      g+1     :    -0.000000
      g-1     :    -0.000000
      g+2     :     0.000000
      g-2     :    -0.000000
      g+3     :     0.000000
      g-3     :    -0.000000
      g+4     :     0.000000
      g-4     :    -0.000000
      h0      :     0.000000  h :     0.000000
      h+1     :    -0.000000
      h-1     :    -0.000000
      h+2     :    -0.000000
      h-2     :     0.000000
      h+3     :     0.000000
      h-3     :    -0.000000
      h+4     :    -0.000000
      h-4     :     0.000000
      h+5     :    -0.000000
      h-5     :     0.000000
  2 N s       :    -0.000000  s :    -0.000000
      pz      :     0.000000  p :     0.000000
      px      :    -0.000000
      py      :     0.000000
      dz2     :     0.000000  d :    -0.000000
      dxz     :    -0.000000
      dyz     :    -0.000000
      dx2y2   :    -0.000000
      dxy     :    -0.000000
      f0      :    -0.000000  f :    -0.000000
      f+1     :    -0.000000
      f-1     :    -0.000000
      f+2     :    -0.000000
      f-2     :    -0.000000
      f+3     :    -0.000000
      f-3     :    -0.000000
      g0      :    -0.000000  g :    -0.000000
      g+1     :    -0.000000
      g-1     :    -0.000000
      g+2     :     0.000000
      g-2     :     0.000000
      g+3     :    -0.000000
      g-3     :    -0.000000
      g+4     :     0.000000
      g-4     :    -0.000000
      h0      :     0.000000  h :     0.000000
      h+1     :     0.000000
      h-1     :     0.000000
      h+2     :     0.000000
      h-2     :    -0.000000
      h+3     :    -0.000000
      h-3     :     0.000000
      h+4     :     0.000000
      h-4     :     0.000000
      h+5     :     0.000000
      h-5     :    -0.000000


                      *****************************
                      * MAYER POPULATION ANALYSIS *
                      *****************************

  NA   - Mulliken gross atomic population
  ZA   - Total nuclear charge
  QA   - Mulliken gross atomic charge
  VA   - Mayer's total valence
  BVA  - Mayer's bonded valence
  FA   - Mayer's free valence

  ATOM       NA         ZA         QA         VA         BVA        FA
  0 Li     2.2965     3.0000     0.7035     0.4849     0.4849    -0.0000
  1 C      6.3860     6.0000    -0.3860     2.5838     2.5838    -0.0000
  2 N      7.3175     7.0000    -0.3175     2.8139     2.8139     0.0000

  Mayer bond orders larger than 0.1
B(  0-Li,  1-C ) :   0.1274 B(  0-Li,  2-N ) :   0.3575 B(  1-C ,  2-N ) :   2.4564 


-------
TIMINGS
-------

Total SCF time: 0 days 0 hours 13 min 15 sec 

Total time                  ....     795.462 sec
Sum of individual times     ....     794.235 sec  ( 99.8%)

Fock matrix formation       ....     791.134 sec  ( 99.5%)
  XC integration            ....      15.430 sec  (  2.0% of F)
    Basis function eval.    ....       0.958 sec  (  6.2% of XC)
    Density eval.           ....       2.903 sec  ( 18.8% of XC)
    XC-Functional eval.     ....       0.153 sec  (  1.0% of XC)
    XC-Potential eval.      ....       9.988 sec  ( 64.7% of XC)
Diagonalization             ....       1.228 sec  (  0.2%)
Density matrix formation    ....       0.021 sec  (  0.0%)
Population analysis         ....       0.108 sec  (  0.0%)
Initial guess               ....       0.672 sec  (  0.1%)
Orbital Transformation      ....       0.000 sec  (  0.0%)
Orbital Orthonormalization  ....       0.000 sec  (  0.0%)
DIIS solution               ....       0.706 sec  (  0.1%)
Grid generation             ....       0.366 sec  (  0.0%)

-------------------------   --------------------
FINAL SINGLE POINT ENERGY      -100.284858757281
-------------------------   --------------------


                            ***************************************
                            *     ORCA property calculations      *
                            ***************************************

                                    ---------------------
                                    Active property flags
                                    ---------------------
   (+) Dipole Moment


------------------------------------------------------------------------------
                       ORCA ELECTRIC PROPERTIES CALCULATION
------------------------------------------------------------------------------

Dipole Moment Calculation                       ... on
Quadrupole Moment Calculation                   ... off
Polarizability Calculation                      ... off
GBWName                                         ... licn_pbe_+0001_z.gbw
Electron density file                           ... licn_pbe_+0001_z.scfp.tmp
The origin for moment calculation is the CENTER OF MASS  = ( 0.079529, -0.023371  0.000000)

-------------
DIPOLE MOMENT
-------------
                                X             Y             Z
Electronic contribution:      3.71925      -1.49215       0.02307
Nuclear contribution   :     -1.21344       0.53686       0.00000
                        -----------------------------------------
Total Dipole Moment    :      2.50581      -0.95529       0.02307
                        -----------------------------------------
Magnitude (a.u.)       :      2.68183
Magnitude (Debye)      :      6.81667



--------------------
Rotational spectrum 
--------------------
 
Rotational constants in cm-1:     1.939920     0.831697     0.582124 
Rotational constants in MHz : 58157.349324 24933.635650 17451.642424 

 Dipole components along the rotational axes: 
x,y,z [a.u.] :    -2.672341    -0.224208     0.023073 
x,y,z [Debye]:    -6.792552    -0.569890     0.058647 

 

Timings for individual modules:

Sum of individual times         ...      811.442 sec (=  13.524 min)
GTO integral calculation        ...        8.529 sec (=   0.142 min)   1.1 %
SCF iterations                  ...      802.914 sec (=  13.382 min)  98.9 %
                             ****ORCA TERMINATED NORMALLY****
TOTAL RUN TIME: 0 days 0 hours 13 minutes 33 seconds 338 msec
