
                                 *****************
                                 * O   R   C   A *
                                 *****************

           --- An Ab Initio, DFT and Semiempirical electronic structure package ---

                  #######################################################
                  #                        -***-                        #
                  #          Department of theory and spectroscopy      #
                  #               Directorship: Frank Neese             #
                  #        Max Planck Institute fuer Kohlenforschung    #
                  #                Kaiser Wilhelm Platz 1               #
                  #                 D-45470 Muelheim/Ruhr               #
                  #                      Germany                        #
                  #                                                     #
                  #                  All rights reserved                #
                  #                        -***-                        #
                  #######################################################


                         Program Version 4.1.2  - RELEASE  -


 With contributions from (in alphabetic order):
   Daniel Aravena         : Magnetic Properties
   Michael Atanasov       : Ab Initio Ligand Field Theory
   Alexander A. Auer      : GIAO ZORA
   Ute Becker             : Parallelization
   Giovanni Bistoni       : ED, Open-shell LED
   Martin Brehm           : Molecular dynamics
   Dmytro Bykov           : SCF Hessian
   Vijay G. Chilkuri      : MRCI spin determinant printing
   Dipayan Datta          : RHF DLPNO-CCSD density
   Achintya Kumar Dutta   : EOM-CC, STEOM-CC
   Dmitry Ganyushin       : Spin-Orbit,Spin-Spin,Magnetic field MRCI
   Miquel Garcia          : C-PCM Hessian
   Yang Guo               : DLPNO-NEVPT2, CIM, IAO-localization
   Andreas Hansen         : Spin unrestricted coupled pair/coupled cluster methods
   Benjamin Helmich-Paris : CASSCF linear response (MC-RPA)
   Lee Huntington         : MR-EOM, pCC
   Robert Izsak           : Overlap fitted RIJCOSX, COSX-SCS-MP3, EOM
   Christian Kollmar      : KDIIS, OOCD, Brueckner-CCSD(T), CCSD density
   Simone Kossmann        : Meta GGA functionals, TD-DFT gradient, OOMP2, MP2 Hessian
   Martin Krupicka        : AUTO-CI
   Lucas Lang             : DCDCAS
   Dagmar Lenk            : GEPOL surface, SMD
   Dimitrios Liakos       : Extrapolation schemes; parallel MDCI
   Dimitrios Manganas     : ROCIS; embedding schemes
   Dimitrios Pantazis     : SARC Basis sets
   Taras Petrenko         : DFT Hessian,TD-DFT gradient, ASA, ECA, R-Raman, ABS, FL, XAS/XES, NRVS
   Peter Pinski           : DLPNO-MP2, DLPNO-MP2 Gradient
   Christoph Reimann      : Effective Core Potentials
   Marius Retegan         : Local ZFS, SOC
   Christoph Riplinger    : Optimizer, TS searches, QM/MM, DLPNO-CCSD(T), (RO)-DLPNO pert. Triples
   Tobias Risthaus        : Range-separated hybrids, TD-DFT gradient, RPA, STAB
   Michael Roemelt        : Restricted open shell CIS
   Masaaki Saitow         : Open-shell DLPNO
   Barbara Sandhoefer     : DKH picture change effects
   Avijit Sen             : IP-ROCIS
   Kantharuban Sivalingam : CASSCF convergence, NEVPT2, FIC-MRCI
   Bernardo de Souza      : ESD, SOC TD-DFT
   Georgi Stoychev        : AutoAux, RI-MP2 NMR
   Willem Van den Heuvel  : Paramagnetic NMR
   Boris Wezisla          : Elementary symmetry handling
   Frank Wennmohs         : Technical directorship


 We gratefully acknowledge several colleagues who have allowed us to
 interface, adapt or use parts of their codes:
   Stefan Grimme, W. Hujo, H. Kruse,             : VdW corrections, initial TS optimization,
                  C. Bannwarth                     DFT functionals, gCP, sTDA/sTD-DF
   Ed Valeev                                     : LibInt (2-el integral package), F12 methods
   Garnet Chan, S. Sharma, J. Yang, R. Olivares  : DMRG
   Ulf Ekstrom                                   : XCFun DFT Library
   Mihaly Kallay                                 : mrcc  (arbitrary order and MRCC methods)
   Andreas Klamt, Michael Diedenhofen            : otool_cosmo (COSMO solvation model)
   Jiri Pittner, Ondrej Demel                    : Mk-CCSD
   Frank Weinhold                                : gennbo (NPA and NBO analysis)
   Christopher J. Cramer and Donald G. Truhlar   : smd solvation model
   Lars Goerigk                                  : TD-DFT with DH, B97 family of functionals
   V. Asgeirsson, H. Jonsson                     : NEB implementation
   FAccTs GmbH                                   : IRC, NEB, NEB-TS, Multilevel


 Your calculation uses the libint2 library for the computation of 2-el integrals
 For citations please refer to: http://libint.valeyev.net

 This ORCA versions uses:
   CBLAS   interface :  Fast vector & matrix operations
   LAPACKE interface :  Fast linear algebra routines
   SCALAPACK package :  Parallel linear algebra routines


----- Orbital basis set information -----
Your calculation utilizes the basis: aug-pc-4
   H, C-F              : F. Jensen, J. Chem. Phys. 115, 9113 (2001).
                         F. Jensen, J. Chem. Phys. 116, 7372 (2002).
                         F. Jensen, J. Chem. Phys. 117, 9234 (2002).
   Si-Cl               : F. Jensen, T. Helgaker, J. Chem. Phys. 121, 3463 (2004).
   He-B, Ne-Mg, Al, Ar : F. Jensen, J. Phys. Chem. A 111, 11198 (2007).
   K, Ca, Ga-Kr        : F. Jensen, J. Chem. Phys. 136, 094110 (2012).
   Sc-Zn               : F. Jensen, J. Chem. Phys. 138, 014107 (2013).

================================================================================
                                        WARNINGS
                       Please study these warnings very carefully!
================================================================================


INFO   : the flag for use of LIBINT has been found!

================================================================================
                                       INPUT FILE
================================================================================
NAME = licn_pbe_+0001_x.inp
|  1> !uks pbe nori aug-pc-4 grid5 nofinalgrid verytightscf
|  2> 
|  3> %maxcore 6000
|  4> 
|  5> %pal nprocs 4 end
|  6> 
|  7> %scf
|  8> 	efield 0.001, 0.0, 0.0
|  9> 	maxiter 200
| 10> end
| 11> 
| 12> * xyz 0 1
| 13> Li 1.4157454937 -0.6164252897 0.0000000000
| 14> C -0.6780148225 -0.3855159545 0.0000000000
| 15> N -0.0211306712 0.6069412443 0.0000000000
| 16> *
| 17> 
| 18>                          ****END OF INPUT****
================================================================================

                       ****************************
                       * Single Point Calculation *
                       ****************************

---------------------------------
CARTESIAN COORDINATES (ANGSTROEM)
---------------------------------
  Li     1.415745   -0.616425    0.000000
  C     -0.678015   -0.385516    0.000000
  N     -0.021131    0.606941    0.000000

----------------------------
CARTESIAN COORDINATES (A.U.)
----------------------------
  NO LB      ZA    FRAG     MASS         X           Y           Z
   0 Li    3.0000    0     6.941    2.675371   -1.164875    0.000000
   1 C     6.0000    0    12.011   -1.281262   -0.728520    0.000000
   2 N     7.0000    0    14.007   -0.039931    1.146953    0.000000

--------------------------------
INTERNAL COORDINATES (ANGSTROEM)
--------------------------------
 Li     0   0   0     0.000000000000     0.00000000     0.00000000
 C      1   0   0     2.106454695164     0.00000000     0.00000000
 N      2   1   0     1.190154645279    62.79376329     0.00000000

---------------------------
INTERNAL COORDINATES (A.U.)
---------------------------
 Li     0   0   0     0.000000000000     0.00000000     0.00000000
 C      1   0   0     3.980622487372     0.00000000     0.00000000
 N      2   1   0     2.249066336591    62.79376329     0.00000000

---------------------
BASIS SET INFORMATION
---------------------
There are 3 groups of distinct atoms

 Group   1 Type Li  : 31s9p4d3f2g contracted to 9s5p4d3f2g pattern {12121111111/51111/1111/111/11}
 Group   2 Type C   : 28s12p7d4f3g2h contracted to 9s8p7d4f3g2h pattern {11101111111/51111111/1111111/1111/111/11}
 Group   3 Type N   : 27s12p7d4f3g2h contracted to 9s8p7d4f3g2h pattern {1191111111/51111111/1111111/1111/111/11}

Atom   0Li   basis set group =>   1
Atom   1C    basis set group =>   2
Atom   2N    basis set group =>   3


           ************************************************************
           *        Program running with 4 parallel MPI-processes     *
           *              working on a common directory               *
           ************************************************************
------------------------------------------------------------------------------
                           ORCA GTO INTEGRAL CALCULATION
------------------------------------------------------------------------------

                         BASIS SET STATISTICS AND STARTUP INFO

 # of primitive gaussian shells          ...  160
 # of primitive gaussian functions       ...  468
 # of contracted shells                  ...   89
 # of contracted basis functions         ...  373
 Highest angular momentum                ...    5
 Maximum contraction depth               ...   12
 Integral package used                   ... LIBINT
 Integral threshhold            Thresh   ...  1.000e-12
 Primitive cut-off              TCut     ...  1.000e-14


------------------------------ INTEGRAL EVALUATION ----------------------------


 * One electron integrals 
 Pre-screening matrix                    ... done
 Shell pair data                         ... done (   0.001 sec)


An Electric Field will be added: 1.000e-03 0.000e+00 0.000e+00 au

  ... done adding electric field perturbation



           ************************************************************
           *        Program running with 4 parallel MPI-processes     *
           *              working on a common directory               *
           ************************************************************
-------------------------------------------------------------------------------
                                 ORCA SCF
-------------------------------------------------------------------------------

------------
SCF SETTINGS
------------
Hamiltonian:
 Density Functional     Method          .... DFT(GTOs)
 Exchange Functional    Exchange        .... PBE
   PBE kappa parameter   XKappa         ....  0.804000
   PBE mue parameter    XMuePBE         ....  0.219520
 Correlation Functional Correlation     .... PBE
   PBE beta parameter  CBetaPBE         ....  0.066725
 LDA part of GGA corr.  LDAOpt          .... PW91-LDA
 Gradients option       PostSCFGGA      .... off
   Density functional embedding theory  .... OFF
   NL short-range parameter             ....  6.400000


General Settings:
 Integral files         IntName         .... licn_pbe_+0001_x
 Hartree-Fock type      HFTyp           .... UHF
 Total Charge           Charge          ....    0
 Multiplicity           Mult            ....    1
 Number of Electrons    NEL             ....   16
 Basis Dimension        Dim             ....  373
 Nuclear Repulsion      ENuc            ....     29.0850277302 Eh

Convergence Acceleration:
 DIIS                   CNVDIIS         .... on
   Start iteration      DIISMaxIt       ....    12
   Startup error        DIISStart       ....  0.200000
   # of expansion vecs  DIISMaxEq       ....     5
   Bias factor          DIISBfac        ....   1.050
   Max. coefficient     DIISMaxC        ....  10.000
 Newton-Raphson         CNVNR           .... off
 SOSCF                  CNVSOSCF        .... off
 Level Shifting         CNVShift        .... on
   Level shift para.    LevelShift      ....    0.2500
   Turn off err/grad.   ShiftErr        ....    0.0010
 Zerner damping         CNVZerner       .... off
 Static damping         CNVDamp         .... on
   Fraction old density DampFac         ....    0.7000
   Max. Damping (<1)    DampMax         ....    0.9800
   Min. Damping (>=0)   DampMin         ....    0.0000
   Turn off err/grad.   DampErr         ....    0.1000
 Fernandez-Rico         CNVRico         .... off

SCF Procedure:
 Maximum # iterations   MaxIter         ....   200
 SCF integral mode      SCFMode         .... Direct
   Integral package                     .... LIBINT
 Reset frequency        DirectResetFreq ....    20
 Integral Threshold     Thresh          ....  1.000e-12 Eh
 Primitive CutOff       TCut            ....  1.000e-14 Eh

Convergence Tolerance:
 Convergence Check Mode ConvCheckMode   .... Total+1el-Energy
 Convergence forced     ConvForced      .... 0
 Energy Change          TolE            ....  1.000e-09 Eh
 1-El. energy change                    ....  1.000e-06 Eh
 DIIS Error             TolErr          ....  1.000e-08


Diagonalization of the overlap matrix:
Smallest eigenvalue                        ... 8.815e-07
Time for diagonalization                   ...    0.025 sec
Threshold for overlap eigenvalues          ... 1.000e-08
Number of eigenvalues below threshold      ... 0
Time for construction of square roots      ...    0.018 sec
Total time needed                          ...    0.044 sec

-------------------
DFT GRID GENERATION
-------------------

General Integration Accuracy     IntAcc      ...  5.010
Radial Grid Type                 RadialGrid  ... Gauss-Chebyshev
Angular Grid (max. acc.)         AngularGrid ... Lebedev-434
Angular grid pruning method      GridPruning ... 3 (G Style)
Weight generation scheme         WeightScheme... Becke
Basis function cutoff            BFCut       ...    1.0000e-12
Integration weight cutoff        WCut        ...    1.0000e-14
Grids for H and He will be reduced by one unit

# of grid points (after initial pruning)     ...  31650 (   0.0 sec)
# of grid points (after weights+screening)   ...  31407 (   0.0 sec)
nearest neighbour list constructed           ...    0.0 sec
Grid point re-assignment to atoms done       ...    0.0 sec
Grid point division into batches done        ...    0.2 sec
Reduced shell lists constructed in    0.3 sec

Total number of grid points                  ...    31407
Total number of batches                      ...      493
Average number of points per batch           ...       63
Average number of grid points per atom       ...    10469
Average number of shells per batch           ...    54.05 (60.73%)
Average number of basis functions per batch  ...   225.47 (60.45%)
Average number of large shells per batch     ...    46.73 (86.46%)
Average number of large basis fcns per batch ...   194.68 (86.34%)
Maximum spatial batch extension              ...  30.30, 32.58, 32.58 au
Average spatial batch extension              ...   1.55,  1.67,  1.66 au

Time for grid setup =    0.357 sec

------------------------------
INITIAL GUESS: MODEL POTENTIAL
------------------------------
Loading Hartree-Fock densities                     ... done
Calculating cut-offs                               ... done
Setting up the integral package                    ... done
Initializing the effective Hamiltonian             ... done
Starting the Coulomb interaction                   ... done (   0.0 sec)
Reading the grid                                   ... done
Mapping shells                                     ... done
Starting the XC term evaluation                    ... done (   0.5 sec)
  promolecular density results
     # of electrons  =     15.999997333
     EX              =    -13.283770326
     EC              =     -0.463352887
     EX+EC           =    -13.747123213
Transforming the Hamiltonian                       ... done (   0.0 sec)
Diagonalizing the Hamiltonian                      ... done (   0.0 sec)
Back transforming the eigenvectors                 ... done (   0.0 sec)
Now organizing SCF variables                       ... done
                      ------------------
                      INITIAL GUESS DONE (   1.0 sec)
                      ------------------
--------------
SCF ITERATIONS
--------------
ITER       Energy         Delta-E        Max-DP      RMS-DP      [F,P]     Damp
               ***  Starting incremental Fock matrix formation  ***
  0   -100.1696163611   0.000000000000 0.01967234  0.00021083  0.2726314 0.7000
  1   -100.2304972306  -0.060880869472 0.02111302  0.00016552  0.0923784 0.7000
                               ***Turning on DIIS***
  2   -100.2469214029  -0.016424172293 0.03198477  0.00029392  0.0418931 0.0000
  3   -100.2788179240  -0.031896521148 0.01666675  0.00011700  0.0445213 0.0000
  4   -100.2849135412  -0.006095617169 0.00457181  0.00003883  0.0402152 0.0000
  5   -100.2871536737  -0.002240132493 0.00247244  0.00002071  0.0114948 0.0000
  6   -100.2873496273  -0.000195953638 0.00161930  0.00001067  0.0025596 0.0000
  7   -100.2873640869  -0.000014459579 0.00121839  0.00000832  0.0007092 0.0000
  8   -100.2873671658  -0.000003078888 0.00018590  0.00000138  0.0001701 0.0000
  9   -100.2873672253  -0.000000059533 0.00002075  0.00000029  0.0001284 0.0000
 10   -100.2873672513  -0.000000025958 0.00000605  0.00000005  0.0000206 0.0000
 11   -100.2873672522  -0.000000000918 0.00000241  0.00000002  0.0000045 0.0000
 12   -100.2873672523  -0.000000000093 0.00000243  0.00000002  0.0000011 0.0000
                 **** Energy Check signals convergence ****

               *****************************************************
               *                     SUCCESS                       *
               *           SCF CONVERGED AFTER  13 CYCLES          *
               *****************************************************


----------------
TOTAL SCF ENERGY
----------------

Total Energy       :         -100.28736725 Eh           -2728.95800 eV

Components:
Nuclear Repulsion  :           29.08502773 Eh             791.44384 eV
Electronic Energy  :         -129.37239498 Eh           -3520.40184 eV
One Electron Energy:         -193.48278691 Eh           -5264.93430 eV
Two Electron Energy:           64.11039193 Eh            1744.53245 eV

Virial components:
Potential Energy   :         -200.12738555 Eh           -5445.74302 eV
Kinetic Energy     :           99.84001830 Eh            2716.78502 eV
Virial Ratio       :            2.00448066


DFT components:
N(Alpha)           :        7.999997414450 electrons
N(Beta)            :        7.999997414450 electrons
N(Total)           :       15.999994828900 electrons
E(X)               :      -13.532812828989 Eh       
E(C)               :       -0.482177268933 Eh       
E(XC)              :      -14.014990097922 Eh       
DFET-embed. en.    :        0.000000000000 Eh       

---------------
SCF CONVERGENCE
---------------

  Last Energy change         ...   -4.4196e-12  Tolerance :   1.0000e-09
  Last MAX-Density change    ...    1.7293e-06  Tolerance :   1.0000e-08
  Last RMS-Density change    ...    1.9298e-08  Tolerance :   1.0000e-09
  Last DIIS Error            ...    3.5012e-07  Tolerance :   1.0000e-08

             **** THE GBW FILE WAS UPDATED (licn_pbe_+0001_x.gbw) ****
             **** DENSITY FILE WAS UPDATED (licn_pbe_+0001_x.scfp.tmp) ****
             **** ENERGY FILE WAS UPDATED (licn_pbe_+0001_x.en.tmp) ****
----------------------
UHF SPIN CONTAMINATION
----------------------

Warning: in a DFT calculation there is little theoretical justification to 
         calculate <S**2> as in Hartree-Fock theory. We will do it anyways
         but you should keep in mind that the values have only limited relevance

Expectation value of <S**2>     :     0.000000
Ideal value S*(S+1) for S=0.0   :     0.000000
Deviation                       :     0.000000

----------------
ORBITAL ENERGIES
----------------
                 SPIN UP ORBITALS
  NO   OCC          E(Eh)            E(eV) 
   0   1.0000     -13.939960      -379.3256 
   1   1.0000      -9.861101      -268.3342 
   2   1.0000      -1.910906       -51.9984 
   3   1.0000      -0.778803       -21.1923 
   4   1.0000      -0.342935        -9.3317 
   5   1.0000      -0.288664        -7.8549 
   6   1.0000      -0.269729        -7.3397 
   7   1.0000      -0.216923        -5.9028 
   8   0.0000      -0.062603        -1.7035 
   9   0.0000      -0.026670        -0.7257 
  10   0.0000      -0.006611        -0.1799 
  11   0.0000       0.005780         0.1573 
  12   0.0000       0.012816         0.3487 
  13   0.0000       0.015965         0.4344 
  14   0.0000       0.018255         0.4968 
  15   0.0000       0.023279         0.6335 
  16   0.0000       0.030443         0.8284 
  17   0.0000       0.034491         0.9386 
  18   0.0000       0.036745         0.9999 
  19   0.0000       0.039538         1.0759 
  20   0.0000       0.040558         1.1036 
  21   0.0000       0.048076         1.3082 
  22   0.0000       0.049716         1.3528 
  23   0.0000       0.055067         1.4985 
  24   0.0000       0.067449         1.8354 
  25   0.0000       0.069303         1.8858 
  26   0.0000       0.071009         1.9323 
  27   0.0000       0.074876         2.0375 
  28   0.0000       0.079934         2.1751 
  29   0.0000       0.086655         2.3580 
  30   0.0000       0.089534         2.4363 
  31   0.0000       0.097516         2.6535 
  32   0.0000       0.100213         2.7269 
  33   0.0000       0.100592         2.7373 
  34   0.0000       0.106805         2.9063 
  35   0.0000       0.107299         2.9198 
  36   0.0000       0.114133         3.1057 
  37   0.0000       0.120013         3.2657 
  38   0.0000       0.129309         3.5187 
  39   0.0000       0.135399         3.6844 
  40   0.0000       0.138740         3.7753 
  41   0.0000       0.140646         3.8272 
  42   0.0000       0.141737         3.8569 
  43   0.0000       0.153669         4.1815 
  44   0.0000       0.159423         4.3381 
  45   0.0000       0.160333         4.3629 
  46   0.0000       0.163427         4.4471 
  47   0.0000       0.164671         4.4809 
  48   0.0000       0.166607         4.5336 
  49   0.0000       0.167230         4.5505 
  50   0.0000       0.169607         4.6153 
  51   0.0000       0.172737         4.7004 
  52   0.0000       0.178913         4.8685 
  53   0.0000       0.181255         4.9322 
  54   0.0000       0.186559         5.0765 
  55   0.0000       0.195202         5.3117 
  56   0.0000       0.203673         5.5422 
  57   0.0000       0.207796         5.6544 
  58   0.0000       0.210931         5.7397 
  59   0.0000       0.218713         5.9515 
  60   0.0000       0.230700         6.2777 
  61   0.0000       0.238608         6.4928 
  62   0.0000       0.257485         7.0065 
  63   0.0000       0.265775         7.2321 
  64   0.0000       0.268064         7.2944 
  65   0.0000       0.269515         7.3339 
  66   0.0000       0.272661         7.4195 
  67   0.0000       0.281533         7.6609 
  68   0.0000       0.283684         7.7194 
  69   0.0000       0.289923         7.8892 
  70   0.0000       0.296195         8.0599 
  71   0.0000       0.304715         8.2917 
  72   0.0000       0.309061         8.4100 
  73   0.0000       0.320287         8.7154 
  74   0.0000       0.329334         8.9616 
  75   0.0000       0.333914         9.0863 
  76   0.0000       0.338586         9.2134 
  77   0.0000       0.342254         9.3132 
  78   0.0000       0.356596         9.7035 
  79   0.0000       0.371596        10.1116 
  80   0.0000       0.377575        10.2743 
  81   0.0000       0.383630        10.4391 
  82   0.0000       0.387975        10.5573 
  83   0.0000       0.398006        10.8303 
  84   0.0000       0.399111        10.8604 
  85   0.0000       0.409250        11.1363 
  86   0.0000       0.418235        11.3808 
  87   0.0000       0.424371        11.5477 
  88   0.0000       0.430636        11.7182 
  89   0.0000       0.436362        11.8740 
  90   0.0000       0.447388        12.1741 
  91   0.0000       0.462131        12.5752 
  92   0.0000       0.474205        12.9038 
  93   0.0000       0.474209        12.9039 
  94   0.0000       0.491249        13.3676 
  95   0.0000       0.497561        13.5393 
  96   0.0000       0.507033        13.7971 
  97   0.0000       0.522210        14.2100 
  98   0.0000       0.534657        14.5487 
  99   0.0000       0.536674        14.6036 
 100   0.0000       0.538686        14.6584 
 101   0.0000       0.556695        15.1484 
 102   0.0000       0.563638        15.3374 
 103   0.0000       0.574845        15.6423 
 104   0.0000       0.575210        15.6522 
 105   0.0000       0.580064        15.7843 
 106   0.0000       0.592224        16.1152 
 107   0.0000       0.593260        16.1434 
 108   0.0000       0.613267        16.6878 
 109   0.0000       0.617146        16.7934 
 110   0.0000       0.625109        17.0101 
 111   0.0000       0.628960        17.1149 
 112   0.0000       0.633640        17.2422 
 113   0.0000       0.644681        17.5427 
 114   0.0000       0.651511        17.7285 
 115   0.0000       0.658964        17.9313 
 116   0.0000       0.665179        18.1004 
 117   0.0000       0.669638        18.2218 
 118   0.0000       0.675553        18.3827 
 119   0.0000       0.682606        18.5746 
 120   0.0000       0.683307        18.5937 
 121   0.0000       0.688667        18.7396 
 122   0.0000       0.688951        18.7473 
 123   0.0000       0.707588        19.2545 
 124   0.0000       0.735618        20.0172 
 125   0.0000       0.735926        20.0256 
 126   0.0000       0.759743        20.6737 
 127   0.0000       0.776379        21.1263 
 128   0.0000       0.792310        21.5598 
 129   0.0000       0.794876        21.6297 
 130   0.0000       0.795451        21.6453 
 131   0.0000       0.823057        22.3965 
 132   0.0000       0.833884        22.6911 
 133   0.0000       0.837736        22.7960 
 134   0.0000       0.841395        22.8955 
 135   0.0000       0.858842        23.3703 
 136   0.0000       0.875017        23.8104 
 137   0.0000       0.901331        24.5265 
 138   0.0000       0.908628        24.7250 
 139   0.0000       0.915796        24.9201 
 140   0.0000       0.925002        25.1706 
 141   0.0000       0.938308        25.5326 
 142   0.0000       0.945138        25.7185 
 143   0.0000       0.957621        26.0582 
 144   0.0000       0.966334        26.2953 
 145   0.0000       0.978203        26.6183 
 146   0.0000       0.997293        27.1377 
 147   0.0000       1.000640        27.2288 
 148   0.0000       1.012556        27.5531 
 149   0.0000       1.033551        28.1243 
 150   0.0000       1.036142        28.1949 
 151   0.0000       1.052173        28.6311 
 152   0.0000       1.057520        28.7766 
 153   0.0000       1.062266        28.9057 
 154   0.0000       1.093464        29.7547 
 155   0.0000       1.096334        29.8328 
 156   0.0000       1.096700        29.8427 
 157   0.0000       1.111901        30.2564 
 158   0.0000       1.133474        30.8434 
 159   0.0000       1.160102        31.5680 
 160   0.0000       1.163662        31.6649 
 161   0.0000       1.192312        32.4444 
 162   0.0000       1.200420        32.6651 
 163   0.0000       1.210564        32.9411 
 164   0.0000       1.245039        33.8792 
 165   0.0000       1.256432        34.1893 
 166   0.0000       1.260340        34.2956 
 167   0.0000       1.300936        35.4003 
 168   0.0000       1.340767        36.4841 
 169   0.0000       1.355070        36.8733 
 170   0.0000       1.405403        38.2430 
 171   0.0000       1.471413        40.0392 
 172   0.0000       1.484673        40.4000 
 173   0.0000       1.526772        41.5456 
 174   0.0000       1.570938        42.7474 
 175   0.0000       1.579099        42.9695 
 176   0.0000       1.617155        44.0050 
 177   0.0000       1.620597        44.0987 
 178   0.0000       1.655272        45.0422 
 179   0.0000       1.697435        46.1895 
 180   0.0000       1.754665        47.7469 
 181   0.0000       1.785705        48.5915 
 182   0.0000       1.806051        49.1451 
 183   0.0000       1.836921        49.9852 
 184   0.0000       1.866875        50.8003 
 185   0.0000       1.962547        53.4036 
 186   0.0000       1.996493        54.3273 
 187   0.0000       2.064781        56.1856 
 188   0.0000       2.090799        56.8935 
 189   0.0000       2.101943        57.1968 
 190   0.0000       2.122235        57.7489 
 191   0.0000       2.170236        59.0551 
 192   0.0000       2.193009        59.6748 
 193   0.0000       2.193192        59.6798 
 194   0.0000       2.219548        60.3970 
 195   0.0000       2.221358        60.4462 
 196   0.0000       2.276500        61.9467 
 197   0.0000       2.305477        62.7352 
 198   0.0000       2.346094        63.8405 
 199   0.0000       2.410642        65.5969 
 200   0.0000       2.460371        66.9501 
 201   0.0000       2.476448        67.3876 
 202   0.0000       2.494141        67.8690 
 203   0.0000       2.547941        69.3330 
 204   0.0000       2.555934        69.5505 
 205   0.0000       2.612532        71.0906 
 206   0.0000       2.613910        71.1281 
 207   0.0000       2.687295        73.1250 
 208   0.0000       2.699360        73.4533 
 209   0.0000       2.739732        74.5519 
 210   0.0000       2.750260        74.8384 
 211   0.0000       2.755130        74.9709 
 212   0.0000       2.830417        77.0196 
 213   0.0000       2.887592        78.5754 
 214   0.0000       2.917794        79.3972 
 215   0.0000       3.002589        81.7046 
 216   0.0000       3.037208        82.6466 
 217   0.0000       3.067918        83.4823 
 218   0.0000       3.073668        83.6388 
 219   0.0000       3.078442        83.7687 
 220   0.0000       3.118296        84.8532 
 221   0.0000       3.181116        86.5626 
 222   0.0000       3.199416        87.0605 
 223   0.0000       3.248569        88.3981 
 224   0.0000       3.324980        90.4773 
 225   0.0000       3.348856        91.1270 
 226   0.0000       3.449694        93.8710 
 227   0.0000       3.469781        94.4175 
 228   0.0000       3.544654        96.4549 
 229   0.0000       3.789077       103.1060 
 230   0.0000       3.855079       104.9020 
 231   0.0000       4.054777       110.3361 
 232   0.0000       4.126188       112.2793 
 233   0.0000       4.172553       113.5410 
 234   0.0000       4.183294       113.8332 
 235   0.0000       4.237664       115.3127 
 236   0.0000       4.252495       115.7163 
 237   0.0000       4.355204       118.5111 
 238   0.0000       4.438167       120.7687 
 239   0.0000       4.536622       123.4477 
 240   0.0000       4.550186       123.8169 
 241   0.0000       4.602482       125.2399 
 242   0.0000       4.616753       125.6282 
 243   0.0000       4.748248       129.2064 
 244   0.0000       4.767720       129.7363 
 245   0.0000       4.804454       130.7358 
 246   0.0000       4.831316       131.4668 
 247   0.0000       4.846370       131.8764 
 248   0.0000       4.871885       132.5707 
 249   0.0000       4.900896       133.3602 
 250   0.0000       4.964988       135.1042 
 251   0.0000       5.052821       137.4943 
 252   0.0000       5.138533       139.8266 
 253   0.0000       5.240914       142.6125 
 254   0.0000       5.256565       143.0384 
 255   0.0000       5.271304       143.4395 
 256   0.0000       5.327698       144.9740 
 257   0.0000       5.343644       145.4080 
 258   0.0000       5.407538       147.1466 
 259   0.0000       5.438542       147.9902 
 260   0.0000       5.543688       150.8514 
 261   0.0000       5.659549       154.0042 
 262   0.0000       5.668128       154.2376 
 263   0.0000       5.832973       158.7233 
 264   0.0000       5.924350       161.2098 
 265   0.0000       6.033536       164.1809 
 266   0.0000       6.044460       164.4781 
 267   0.0000       6.094340       165.8354 
 268   0.0000       6.275709       170.7707 
 269   0.0000       6.317725       171.9140 
 270   0.0000       6.413938       174.5321 
 271   0.0000       6.507454       177.0768 
 272   0.0000       6.655412       181.1030 
 273   0.0000       6.657304       181.1544 
 274   0.0000       6.815056       185.4471 
 275   0.0000       6.833543       185.9502 
 276   0.0000       6.904946       187.8931 
 277   0.0000       7.070497       192.3980 
 278   0.0000       7.102406       193.2663 
 279   0.0000       7.329443       199.4443 
 280   0.0000       7.858296       213.8351 
 281   0.0000       8.128080       221.1763 
 282   0.0000       8.269837       225.0337 
 283   0.0000       8.334199       226.7851 
 284   0.0000       9.175483       249.6776 
 285   0.0000       9.437802       256.8157 
 286   0.0000       9.781996       266.1816 
 287   0.0000      10.173935       276.8468 
 288   0.0000      10.188908       277.2543 
 289   0.0000      10.232957       278.4529 
 290   0.0000      10.274401       279.5807 
 291   0.0000      10.342535       281.4347 
 292   0.0000      10.431608       283.8585 
 293   0.0000      10.431859       283.8653 
 294   0.0000      10.447880       284.3013 
 295   0.0000      10.522932       286.3435 
 296   0.0000      10.625651       289.1387 
 297   0.0000      10.631864       289.3077 
 298   0.0000      10.736261       292.1485 
 299   0.0000      10.841427       295.0102 
 300   0.0000      10.844251       295.0871 
 301   0.0000      10.895689       296.4868 
 302   0.0000      11.050575       300.7014 
 303   0.0000      11.090489       301.7876 
 304   0.0000      11.386206       309.8344 
 305   0.0000      11.475725       312.2703 
 306   0.0000      11.482832       312.4637 
 307   0.0000      11.508152       313.1527 
 308   0.0000      11.526185       313.6434 
 309   0.0000      11.569563       314.8238 
 310   0.0000      11.577049       315.0275 
 311   0.0000      11.584493       315.2301 
 312   0.0000      11.631691       316.5144 
 313   0.0000      11.668010       317.5027 
 314   0.0000      11.722070       318.9737 
 315   0.0000      11.723469       319.0118 
 316   0.0000      11.835474       322.0596 
 317   0.0000      11.914754       324.2169 
 318   0.0000      11.949627       325.1659 
 319   0.0000      12.098303       329.2116 
 320   0.0000      12.122599       329.8727 
 321   0.0000      12.124510       329.9247 
 322   0.0000      12.269181       333.8614 
 323   0.0000      12.458884       339.0235 
 324   0.0000      12.507245       340.3395 
 325   0.0000      12.651037       344.2522 
 326   0.0000      12.724650       346.2553 
 327   0.0000      12.846164       349.5619 
 328   0.0000      12.964349       352.7779 
 329   0.0000      12.969992       352.9314 
 330   0.0000      13.536669       368.3515 
 331   0.0000      13.704636       372.9221 
 332   0.0000      13.768280       374.6540 
 333   0.0000      14.528163       395.3314 
 334   0.0000      14.561274       396.2324 
 335   0.0000      14.645646       398.5283 
 336   0.0000      14.751509       401.4090 
 337   0.0000      14.761507       401.6810 
 338   0.0000      15.004873       408.3033 
 339   0.0000      15.062770       409.8788 
 340   0.0000      15.374344       418.3572 
 341   0.0000      15.431609       419.9154 
 342   0.0000      15.593615       424.3238 
 343   0.0000      15.810049       430.2133 
 344   0.0000      15.890635       432.4062 
 345   0.0000      16.020107       435.9293 
 346   0.0000      16.728227       455.1982 
 347   0.0000      16.888353       459.5555 
 348   0.0000      16.970769       461.7981 
 349   0.0000      17.141217       466.4362 
 350   0.0000      17.685329       481.2423 
 351   0.0000      17.727805       482.3981 
 352   0.0000      17.771194       483.5788 
 353   0.0000      18.652439       507.5587 
 354   0.0000      19.070023       518.9217 
 355   0.0000      19.118837       520.2500 
 356   0.0000      21.469133       584.2048 
 357   0.0000      24.012863       653.4232 
 358   0.0000      26.137952       711.2498 
 359   0.0000      26.413702       718.7534 
 360   0.0000      27.944953       760.4208 
 361   0.0000      31.962215       869.7361 
 362   0.0000      32.050653       872.1426 
 363   0.0000      32.895602       895.1348 
 364   0.0000      32.913692       895.6271 
 365   0.0000      34.427117       936.8095 
 366   0.0000      47.761270      1299.6502 
 367   0.0000      47.882438      1302.9474 
 368   0.0000      48.013405      1306.5112 
 369   0.0000      48.069217      1308.0299 
 370   0.0000      48.951905      1332.0490 
 371   0.0000      74.272107      2021.0468 
 372   0.0000     104.191194      2835.1865 

                 SPIN DOWN ORBITALS
  NO   OCC          E(Eh)            E(eV) 
   0   1.0000     -13.939960      -379.3256 
   1   1.0000      -9.861101      -268.3342 
   2   1.0000      -1.910906       -51.9984 
   3   1.0000      -0.778803       -21.1923 
   4   1.0000      -0.342935        -9.3317 
   5   1.0000      -0.288664        -7.8549 
   6   1.0000      -0.269729        -7.3397 
   7   1.0000      -0.216923        -5.9028 
   8   0.0000      -0.062603        -1.7035 
   9   0.0000      -0.026670        -0.7257 
  10   0.0000      -0.006611        -0.1799 
  11   0.0000       0.005780         0.1573 
  12   0.0000       0.012816         0.3487 
  13   0.0000       0.015965         0.4344 
  14   0.0000       0.018255         0.4968 
  15   0.0000       0.023279         0.6335 
  16   0.0000       0.030443         0.8284 
  17   0.0000       0.034491         0.9386 
  18   0.0000       0.036745         0.9999 
  19   0.0000       0.039538         1.0759 
  20   0.0000       0.040558         1.1036 
  21   0.0000       0.048076         1.3082 
  22   0.0000       0.049716         1.3528 
  23   0.0000       0.055067         1.4985 
  24   0.0000       0.067449         1.8354 
  25   0.0000       0.069303         1.8858 
  26   0.0000       0.071009         1.9323 
  27   0.0000       0.074876         2.0375 
  28   0.0000       0.079934         2.1751 
  29   0.0000       0.086655         2.3580 
  30   0.0000       0.089534         2.4363 
  31   0.0000       0.097516         2.6535 
  32   0.0000       0.100213         2.7269 
  33   0.0000       0.100592         2.7373 
  34   0.0000       0.106805         2.9063 
  35   0.0000       0.107299         2.9198 
  36   0.0000       0.114133         3.1057 
  37   0.0000       0.120013         3.2657 
  38   0.0000       0.129309         3.5187 
  39   0.0000       0.135399         3.6844 
  40   0.0000       0.138740         3.7753 
  41   0.0000       0.140646         3.8272 
  42   0.0000       0.141737         3.8569 
  43   0.0000       0.153669         4.1815 
  44   0.0000       0.159423         4.3381 
  45   0.0000       0.160333         4.3629 
  46   0.0000       0.163427         4.4471 
  47   0.0000       0.164671         4.4809 
  48   0.0000       0.166607         4.5336 
  49   0.0000       0.167230         4.5505 
  50   0.0000       0.169607         4.6153 
  51   0.0000       0.172737         4.7004 
  52   0.0000       0.178913         4.8685 
  53   0.0000       0.181255         4.9322 
  54   0.0000       0.186559         5.0765 
  55   0.0000       0.195202         5.3117 
  56   0.0000       0.203673         5.5422 
  57   0.0000       0.207796         5.6544 
  58   0.0000       0.210931         5.7397 
  59   0.0000       0.218713         5.9515 
  60   0.0000       0.230700         6.2777 
  61   0.0000       0.238608         6.4928 
  62   0.0000       0.257485         7.0065 
  63   0.0000       0.265775         7.2321 
  64   0.0000       0.268064         7.2944 
  65   0.0000       0.269515         7.3339 
  66   0.0000       0.272661         7.4195 
  67   0.0000       0.281533         7.6609 
  68   0.0000       0.283684         7.7194 
  69   0.0000       0.289923         7.8892 
  70   0.0000       0.296195         8.0599 
  71   0.0000       0.304715         8.2917 
  72   0.0000       0.309061         8.4100 
  73   0.0000       0.320287         8.7154 
  74   0.0000       0.329334         8.9616 
  75   0.0000       0.333914         9.0863 
  76   0.0000       0.338586         9.2134 
  77   0.0000       0.342254         9.3132 
  78   0.0000       0.356596         9.7035 
  79   0.0000       0.371596        10.1116 
  80   0.0000       0.377575        10.2743 
  81   0.0000       0.383630        10.4391 
  82   0.0000       0.387975        10.5573 
  83   0.0000       0.398006        10.8303 
  84   0.0000       0.399111        10.8604 
  85   0.0000       0.409250        11.1363 
  86   0.0000       0.418235        11.3808 
  87   0.0000       0.424371        11.5477 
  88   0.0000       0.430636        11.7182 
  89   0.0000       0.436362        11.8740 
  90   0.0000       0.447388        12.1741 
  91   0.0000       0.462131        12.5752 
  92   0.0000       0.474205        12.9038 
  93   0.0000       0.474209        12.9039 
  94   0.0000       0.491249        13.3676 
  95   0.0000       0.497561        13.5393 
  96   0.0000       0.507033        13.7971 
  97   0.0000       0.522210        14.2100 
  98   0.0000       0.534657        14.5487 
  99   0.0000       0.536674        14.6036 
 100   0.0000       0.538686        14.6584 
 101   0.0000       0.556695        15.1484 
 102   0.0000       0.563638        15.3374 
 103   0.0000       0.574845        15.6423 
 104   0.0000       0.575210        15.6522 
 105   0.0000       0.580064        15.7843 
 106   0.0000       0.592224        16.1152 
 107   0.0000       0.593260        16.1434 
 108   0.0000       0.613267        16.6878 
 109   0.0000       0.617146        16.7934 
 110   0.0000       0.625109        17.0101 
 111   0.0000       0.628960        17.1149 
 112   0.0000       0.633640        17.2422 
 113   0.0000       0.644681        17.5427 
 114   0.0000       0.651511        17.7285 
 115   0.0000       0.658964        17.9313 
 116   0.0000       0.665179        18.1004 
 117   0.0000       0.669638        18.2218 
 118   0.0000       0.675553        18.3827 
 119   0.0000       0.682606        18.5746 
 120   0.0000       0.683307        18.5937 
 121   0.0000       0.688667        18.7396 
 122   0.0000       0.688951        18.7473 
 123   0.0000       0.707588        19.2545 
 124   0.0000       0.735618        20.0172 
 125   0.0000       0.735926        20.0256 
 126   0.0000       0.759743        20.6737 
 127   0.0000       0.776379        21.1263 
 128   0.0000       0.792310        21.5598 
 129   0.0000       0.794876        21.6297 
 130   0.0000       0.795451        21.6453 
 131   0.0000       0.823057        22.3965 
 132   0.0000       0.833884        22.6911 
 133   0.0000       0.837736        22.7960 
 134   0.0000       0.841395        22.8955 
 135   0.0000       0.858842        23.3703 
 136   0.0000       0.875017        23.8104 
 137   0.0000       0.901331        24.5265 
 138   0.0000       0.908628        24.7250 
 139   0.0000       0.915796        24.9201 
 140   0.0000       0.925002        25.1706 
 141   0.0000       0.938308        25.5326 
 142   0.0000       0.945138        25.7185 
 143   0.0000       0.957621        26.0582 
 144   0.0000       0.966334        26.2953 
 145   0.0000       0.978203        26.6183 
 146   0.0000       0.997293        27.1377 
 147   0.0000       1.000640        27.2288 
 148   0.0000       1.012556        27.5531 
 149   0.0000       1.033551        28.1243 
 150   0.0000       1.036142        28.1949 
 151   0.0000       1.052173        28.6311 
 152   0.0000       1.057520        28.7766 
 153   0.0000       1.062266        28.9057 
 154   0.0000       1.093464        29.7547 
 155   0.0000       1.096334        29.8328 
 156   0.0000       1.096700        29.8427 
 157   0.0000       1.111901        30.2564 
 158   0.0000       1.133474        30.8434 
 159   0.0000       1.160102        31.5680 
 160   0.0000       1.163662        31.6649 
 161   0.0000       1.192312        32.4444 
 162   0.0000       1.200420        32.6651 
 163   0.0000       1.210564        32.9411 
 164   0.0000       1.245039        33.8792 
 165   0.0000       1.256432        34.1893 
 166   0.0000       1.260340        34.2956 
 167   0.0000       1.300936        35.4003 
 168   0.0000       1.340767        36.4841 
 169   0.0000       1.355070        36.8733 
 170   0.0000       1.405403        38.2430 
 171   0.0000       1.471413        40.0392 
 172   0.0000       1.484673        40.4000 
 173   0.0000       1.526772        41.5456 
 174   0.0000       1.570938        42.7474 
 175   0.0000       1.579099        42.9695 
 176   0.0000       1.617155        44.0050 
 177   0.0000       1.620597        44.0987 
 178   0.0000       1.655272        45.0422 
 179   0.0000       1.697435        46.1895 
 180   0.0000       1.754665        47.7469 
 181   0.0000       1.785705        48.5915 
 182   0.0000       1.806051        49.1451 
 183   0.0000       1.836921        49.9852 
 184   0.0000       1.866875        50.8003 
 185   0.0000       1.962547        53.4036 
 186   0.0000       1.996493        54.3273 
 187   0.0000       2.064781        56.1856 
 188   0.0000       2.090799        56.8935 
 189   0.0000       2.101943        57.1968 
 190   0.0000       2.122235        57.7489 
 191   0.0000       2.170236        59.0551 
 192   0.0000       2.193009        59.6748 
 193   0.0000       2.193192        59.6798 
 194   0.0000       2.219548        60.3970 
 195   0.0000       2.221358        60.4462 
 196   0.0000       2.276500        61.9467 
 197   0.0000       2.305477        62.7352 
 198   0.0000       2.346094        63.8405 
 199   0.0000       2.410642        65.5969 
 200   0.0000       2.460371        66.9501 
 201   0.0000       2.476448        67.3876 
 202   0.0000       2.494141        67.8690 
 203   0.0000       2.547941        69.3330 
 204   0.0000       2.555934        69.5505 
 205   0.0000       2.612532        71.0906 
 206   0.0000       2.613910        71.1281 
 207   0.0000       2.687295        73.1250 
 208   0.0000       2.699360        73.4533 
 209   0.0000       2.739732        74.5519 
 210   0.0000       2.750260        74.8384 
 211   0.0000       2.755130        74.9709 
 212   0.0000       2.830417        77.0196 
 213   0.0000       2.887592        78.5754 
 214   0.0000       2.917794        79.3972 
 215   0.0000       3.002589        81.7046 
 216   0.0000       3.037208        82.6466 
 217   0.0000       3.067918        83.4823 
 218   0.0000       3.073668        83.6388 
 219   0.0000       3.078442        83.7687 
 220   0.0000       3.118296        84.8532 
 221   0.0000       3.181116        86.5626 
 222   0.0000       3.199416        87.0605 
 223   0.0000       3.248569        88.3981 
 224   0.0000       3.324980        90.4773 
 225   0.0000       3.348856        91.1270 
 226   0.0000       3.449694        93.8710 
 227   0.0000       3.469781        94.4175 
 228   0.0000       3.544654        96.4549 
 229   0.0000       3.789077       103.1060 
 230   0.0000       3.855079       104.9020 
 231   0.0000       4.054777       110.3361 
 232   0.0000       4.126188       112.2793 
 233   0.0000       4.172553       113.5410 
 234   0.0000       4.183294       113.8332 
 235   0.0000       4.237664       115.3127 
 236   0.0000       4.252495       115.7163 
 237   0.0000       4.355204       118.5111 
 238   0.0000       4.438167       120.7687 
 239   0.0000       4.536622       123.4477 
 240   0.0000       4.550186       123.8169 
 241   0.0000       4.602482       125.2399 
 242   0.0000       4.616753       125.6282 
 243   0.0000       4.748248       129.2064 
 244   0.0000       4.767720       129.7363 
 245   0.0000       4.804454       130.7358 
 246   0.0000       4.831316       131.4668 
 247   0.0000       4.846370       131.8764 
 248   0.0000       4.871885       132.5707 
 249   0.0000       4.900896       133.3602 
 250   0.0000       4.964988       135.1042 
 251   0.0000       5.052821       137.4943 
 252   0.0000       5.138533       139.8266 
 253   0.0000       5.240914       142.6125 
 254   0.0000       5.256565       143.0384 
 255   0.0000       5.271304       143.4395 
 256   0.0000       5.327698       144.9740 
 257   0.0000       5.343644       145.4080 
 258   0.0000       5.407538       147.1466 
 259   0.0000       5.438542       147.9902 
 260   0.0000       5.543688       150.8514 
 261   0.0000       5.659549       154.0042 
 262   0.0000       5.668128       154.2376 
 263   0.0000       5.832973       158.7233 
 264   0.0000       5.924350       161.2098 
 265   0.0000       6.033536       164.1809 
 266   0.0000       6.044460       164.4781 
 267   0.0000       6.094340       165.8354 
 268   0.0000       6.275709       170.7707 
 269   0.0000       6.317725       171.9140 
 270   0.0000       6.413938       174.5321 
 271   0.0000       6.507454       177.0768 
 272   0.0000       6.655412       181.1030 
 273   0.0000       6.657304       181.1544 
 274   0.0000       6.815056       185.4471 
 275   0.0000       6.833543       185.9502 
 276   0.0000       6.904946       187.8931 
 277   0.0000       7.070497       192.3980 
 278   0.0000       7.102406       193.2663 
 279   0.0000       7.329443       199.4443 
 280   0.0000       7.858296       213.8351 
 281   0.0000       8.128080       221.1763 
 282   0.0000       8.269837       225.0337 
 283   0.0000       8.334199       226.7851 
 284   0.0000       9.175483       249.6776 
 285   0.0000       9.437802       256.8157 
 286   0.0000       9.781996       266.1816 
 287   0.0000      10.173935       276.8468 
 288   0.0000      10.188908       277.2543 
 289   0.0000      10.232957       278.4529 
 290   0.0000      10.274401       279.5807 
 291   0.0000      10.342535       281.4347 
 292   0.0000      10.431608       283.8585 
 293   0.0000      10.431859       283.8653 
 294   0.0000      10.447880       284.3013 
 295   0.0000      10.522932       286.3435 
 296   0.0000      10.625651       289.1387 
 297   0.0000      10.631864       289.3077 
 298   0.0000      10.736261       292.1485 
 299   0.0000      10.841427       295.0102 
 300   0.0000      10.844251       295.0871 
 301   0.0000      10.895689       296.4868 
 302   0.0000      11.050575       300.7014 
 303   0.0000      11.090489       301.7876 
 304   0.0000      11.386206       309.8344 
 305   0.0000      11.475725       312.2703 
 306   0.0000      11.482832       312.4637 
 307   0.0000      11.508152       313.1527 
 308   0.0000      11.526185       313.6434 
 309   0.0000      11.569563       314.8238 
 310   0.0000      11.577049       315.0275 
 311   0.0000      11.584493       315.2301 
 312   0.0000      11.631691       316.5144 
 313   0.0000      11.668010       317.5027 
 314   0.0000      11.722070       318.9737 
 315   0.0000      11.723469       319.0118 
 316   0.0000      11.835474       322.0596 
 317   0.0000      11.914754       324.2169 
 318   0.0000      11.949627       325.1659 
 319   0.0000      12.098303       329.2116 
 320   0.0000      12.122599       329.8727 
 321   0.0000      12.124510       329.9247 
 322   0.0000      12.269181       333.8614 
 323   0.0000      12.458884       339.0235 
 324   0.0000      12.507245       340.3395 
 325   0.0000      12.651037       344.2522 
 326   0.0000      12.724650       346.2553 
 327   0.0000      12.846164       349.5619 
 328   0.0000      12.964349       352.7779 
 329   0.0000      12.969992       352.9314 
 330   0.0000      13.536669       368.3515 
 331   0.0000      13.704636       372.9221 
 332   0.0000      13.768280       374.6540 
 333   0.0000      14.528163       395.3314 
 334   0.0000      14.561274       396.2324 
 335   0.0000      14.645646       398.5283 
 336   0.0000      14.751509       401.4090 
 337   0.0000      14.761507       401.6810 
 338   0.0000      15.004873       408.3033 
 339   0.0000      15.062770       409.8788 
 340   0.0000      15.374344       418.3572 
 341   0.0000      15.431609       419.9154 
 342   0.0000      15.593615       424.3238 
 343   0.0000      15.810049       430.2133 
 344   0.0000      15.890635       432.4062 
 345   0.0000      16.020107       435.9293 
 346   0.0000      16.728227       455.1982 
 347   0.0000      16.888353       459.5555 
 348   0.0000      16.970769       461.7981 
 349   0.0000      17.141217       466.4362 
 350   0.0000      17.685329       481.2423 
 351   0.0000      17.727805       482.3981 
 352   0.0000      17.771194       483.5788 
 353   0.0000      18.652439       507.5587 
 354   0.0000      19.070023       518.9217 
 355   0.0000      19.118837       520.2500 
 356   0.0000      21.469133       584.2048 
 357   0.0000      24.012863       653.4232 
 358   0.0000      26.137952       711.2498 
 359   0.0000      26.413702       718.7534 
 360   0.0000      27.944953       760.4208 
 361   0.0000      31.962215       869.7361 
 362   0.0000      32.050653       872.1426 
 363   0.0000      32.895602       895.1348 
 364   0.0000      32.913692       895.6271 
 365   0.0000      34.427117       936.8095 
 366   0.0000      47.761270      1299.6502 
 367   0.0000      47.882438      1302.9474 
 368   0.0000      48.013405      1306.5112 
 369   0.0000      48.069217      1308.0299 
 370   0.0000      48.951905      1332.0490 
 371   0.0000      74.272107      2021.0468 
 372   0.0000     104.191194      2835.1865 

                    ********************************
                    * MULLIKEN POPULATION ANALYSIS *
                    ********************************

--------------------------------------------
MULLIKEN ATOMIC CHARGES AND SPIN POPULATIONS
--------------------------------------------
   0 Li:    0.705884   -0.000000
   1 C :   -0.387866    0.000000
   2 N :   -0.318018    0.000000
Sum of atomic charges         :    0.0000000
Sum of atomic spin populations:    0.0000000

-----------------------------------------------------
MULLIKEN REDUCED ORBITAL CHARGES AND SPIN POPULATIONS
-----------------------------------------------------
CHARGE
  0 Lis       :     2.065038  s :     2.065038
      pz      :     0.051046  p :     0.173445
      px      :     0.066492
      py      :     0.055906
      dz2     :     0.003038  d :     0.046221
      dxz     :     0.014098
      dyz     :     0.003510
      dx2y2   :     0.013356
      dxy     :     0.012217
      f0      :     0.001274  f :     0.009043
      f+1     :     0.000941
      f-1     :     0.000340
      f+2     :     0.000542
      f-2     :     0.001152
      f+3     :     0.002576
      f-3     :     0.002219
      g0      :     0.000062  g :     0.000369
      g+1     :    -0.000013
      g-1     :     0.000016
      g+2     :     0.000079
      g-2     :     0.000053
      g+3     :    -0.000006
      g-3     :     0.000034
      g+4     :     0.000036
      g-4     :     0.000107
  1 C s       :     3.824253  s :     3.824253
      pz      :     0.703109  p :     2.491245
      px      :     0.794350
      py      :     0.993785
      dz2     :     0.005494  d :     0.066322
      dxz     :     0.008241
      dyz     :     0.016695
      dx2y2   :     0.019534
      dxy     :     0.016358
      f0      :     0.001065  f :     0.005453
      f+1     :     0.000369
      f-1     :     0.000362
      f+2     :     0.000074
      f-2     :     0.001219
      f+3     :     0.000180
      f-3     :     0.002184
      g0      :     0.000002  g :     0.000609
      g+1     :     0.000043
      g-1     :     0.000143
      g+2     :    -0.000012
      g-2     :     0.000061
      g+3     :     0.000178
      g-3     :     0.000006
      g+4     :    -0.000073
      g-4     :     0.000260
      h0      :     0.000003  h :    -0.000015
      h+1     :    -0.000004
      h-1     :     0.000003
      h+2     :     0.000001
      h-2     :     0.000008
      h+3     :    -0.000023
      h-3     :     0.000012
      h+4     :     0.000006
      h-4     :     0.000002
      h+5     :    -0.000025
      h-5     :     0.000002
  2 N s       :     3.854369  s :     3.854369
      pz      :     1.178644  p :     3.426975
      px      :     1.133717
      py      :     1.114614
      dz2     :     0.005058  d :     0.034976
      dxz     :     0.001629
      dyz     :     0.015418
      dx2y2   :     0.009889
      dxy     :     0.002983
      f0      :     0.000814  f :     0.001088
      f+1     :     0.000526
      f-1     :     0.000382
      f+2     :     0.000331
      f-2     :     0.000479
      f+3     :    -0.003070
      f-3     :     0.001626
      g0      :     0.000023  g :     0.000405
      g+1     :     0.000053
      g-1     :     0.000088
      g+2     :     0.000123
      g-2     :     0.000001
      g+3     :     0.000119
      g-3     :    -0.000034
      g+4     :     0.000279
      g-4     :    -0.000249
      h0      :    -0.000000  h :     0.000205
      h+1     :    -0.000005
      h-1     :     0.000013
      h+2     :     0.000004
      h-2     :     0.000012
      h+3     :    -0.000008
      h-3     :     0.000044
      h+4     :    -0.000009
      h-4     :     0.000003
      h+5     :     0.000100
      h-5     :     0.000051

SPIN
  0 Lis       :    -0.000000  s :    -0.000000
      pz      :    -0.000000  p :    -0.000000
      px      :     0.000000
      py      :    -0.000000
      dz2     :    -0.000000  d :    -0.000000
      dxz     :    -0.000000
      dyz     :     0.000000
      dx2y2   :     0.000000
      dxy     :    -0.000000
      f0      :    -0.000000  f :    -0.000000
      f+1     :    -0.000000
      f-1     :    -0.000000
      f+2     :    -0.000000
      f-2     :     0.000000
      f+3     :    -0.000000
      f-3     :    -0.000000
      g0      :    -0.000000  g :     0.000000
      g+1     :     0.000000
      g-1     :    -0.000000
      g+2     :    -0.000000
      g-2     :     0.000000
      g+3     :     0.000000
      g-3     :     0.000000
      g+4     :     0.000000
      g-4     :     0.000000
  1 C s       :     0.000000  s :     0.000000
      pz      :     0.000000  p :    -0.000000
      px      :     0.000000
      py      :    -0.000000
      dz2     :    -0.000000  d :    -0.000000
      dxz     :     0.000000
      dyz     :    -0.000000
      dx2y2   :    -0.000000
      dxy     :    -0.000000
      f0      :     0.000000  f :    -0.000000
      f+1     :    -0.000000
      f-1     :    -0.000000
      f+2     :    -0.000000
      f-2     :    -0.000000
      f+3     :    -0.000000
      f-3     :    -0.000000
      g0      :     0.000000  g :    -0.000000
      g+1     :     0.000000
      g-1     :     0.000000
      g+2     :    -0.000000
      g-2     :    -0.000000
      g+3     :    -0.000000
      g-3     :    -0.000000
      g+4     :    -0.000000
      g-4     :    -0.000000
      h0      :     0.000000  h :    -0.000000
      h+1     :     0.000000
      h-1     :    -0.000000
      h+2     :    -0.000000
      h-2     :     0.000000
      h+3     :    -0.000000
      h-3     :    -0.000000
      h+4     :    -0.000000
      h-4     :     0.000000
      h+5     :    -0.000000
      h-5     :    -0.000000
  2 N s       :     0.000000  s :     0.000000
      pz      :     0.000000  p :    -0.000000
      px      :    -0.000000
      py      :    -0.000000
      dz2     :    -0.000000  d :     0.000000
      dxz     :    -0.000000
      dyz     :    -0.000000
      dx2y2   :    -0.000000
      dxy     :     0.000000
      f0      :    -0.000000  f :     0.000000
      f+1     :     0.000000
      f-1     :     0.000000
      f+2     :    -0.000000
      f-2     :    -0.000000
      f+3     :     0.000000
      f-3     :    -0.000000
      g0      :     0.000000  g :     0.000000
      g+1     :     0.000000
      g-1     :    -0.000000
      g+2     :     0.000000
      g-2     :     0.000000
      g+3     :    -0.000000
      g-3     :    -0.000000
      g+4     :    -0.000000
      g-4     :     0.000000
      h0      :    -0.000000  h :    -0.000000
      h+1     :     0.000000
      h-1     :    -0.000000
      h+2     :     0.000000
      h-2     :    -0.000000
      h+3     :     0.000000
      h-3     :    -0.000000
      h+4     :    -0.000000
      h-4     :    -0.000000
      h+5     :    -0.000000
      h-5     :     0.000000


                     *******************************
                     * LOEWDIN POPULATION ANALYSIS *
                     *******************************

-------------------------------------------
LOEWDIN ATOMIC CHARGES AND SPIN POPULATIONS
-------------------------------------------
   0 Li:    0.107828   -0.000000
   1 C :   -0.114569   -0.000000
   2 N :    0.006741    0.000000

----------------------------------------------------
LOEWDIN REDUCED ORBITAL CHARGES AND SPIN POPULATIONS
----------------------------------------------------
CHARGE
  0 Lis       :     2.065091  s :     2.065091
      pz      :     0.050191  p :     0.350812
      px      :     0.210942
      py      :     0.089679
      dz2     :     0.041403  d :     0.275495
      dxz     :     0.048540
      dyz     :     0.012214
      dx2y2   :     0.085626
      dxy     :     0.087713
      f0      :     0.020135  f :     0.175784
      f+1     :     0.020617
      f-1     :     0.010318
      f+2     :     0.007433
      f-2     :     0.015596
      f+3     :     0.058289
      f-3     :     0.043396
      g0      :     0.001888  g :     0.024988
      g+1     :     0.003151
      g-1     :     0.000854
      g+2     :     0.002352
      g-2     :     0.002682
      g+3     :     0.000075
      g-3     :     0.001339
      g+4     :     0.005819
      g-4     :     0.006826
  1 C s       :     3.006767  s :     3.006767
      pz      :     0.641239  p :     2.519844
      px      :     0.814350
      py      :     1.064255
      dz2     :     0.051742  d :     0.407935
      dxz     :     0.035037
      dyz     :     0.060395
      dx2y2   :     0.121624
      dxy     :     0.139137
      f0      :     0.015272  f :     0.129530
      f+1     :     0.008767
      f-1     :     0.013728
      f+2     :     0.003195
      f-2     :     0.019341
      f+3     :     0.033525
      f-3     :     0.035702
      g0      :     0.002214  g :     0.038208
      g+1     :     0.002254
      g-1     :     0.004024
      g+2     :     0.003462
      g-2     :     0.003202
      g+3     :     0.003944
      g-3     :     0.000133
      g+4     :     0.011023
      g-4     :     0.007951
      h0      :     0.000439  h :     0.012285
      h+1     :     0.001543
      h-1     :     0.000302
      h+2     :     0.000038
      h-2     :     0.000474
      h+3     :     0.002504
      h-3     :     0.000416
      h+4     :     0.000106
      h-4     :     0.000285
      h+5     :     0.004773
      h-5     :     0.001404
  2 N s       :     3.105439  s :     3.105439
      pz      :     0.979815  p :     3.440875
      px      :     1.138965
      py      :     1.322096
      dz2     :     0.045636  d :     0.287894
      dxz     :     0.010621
      dyz     :     0.036737
      dx2y2   :     0.060833
      dxy     :     0.134067
      f0      :     0.008962  f :     0.099090
      f+1     :     0.009541
      f-1     :     0.013746
      f+2     :     0.001845
      f-2     :     0.009333
      f+3     :     0.028668
      f-3     :     0.026995
      g0      :     0.003678  g :     0.039913
      g+1     :     0.000610
      g-1     :     0.002873
      g+2     :     0.001449
      g-2     :     0.008154
      g+3     :     0.001899
      g-3     :     0.000355
      g+4     :     0.015865
      g-4     :     0.005031
      h0      :     0.000378  h :     0.020049
      h+1     :     0.002252
      h-1     :     0.001922
      h+2     :     0.000064
      h-2     :     0.000220
      h+3     :     0.001947
      h-3     :     0.003571
      h+4     :     0.000347
      h-4     :     0.000235
      h+5     :     0.006437
      h-5     :     0.002676

SPIN
  0 Lis       :    -0.000000  s :    -0.000000
      pz      :    -0.000000  p :    -0.000000
      px      :    -0.000000
      py      :    -0.000000
      dz2     :     0.000000  d :    -0.000000
      dxz     :    -0.000000
      dyz     :     0.000000
      dx2y2   :     0.000000
      dxy     :    -0.000000
      f0      :     0.000000  f :     0.000000
      f+1     :     0.000000
      f-1     :     0.000000
      f+2     :     0.000000
      f-2     :     0.000000
      f+3     :    -0.000000
      f-3     :    -0.000000
      g0      :     0.000000  g :     0.000000
      g+1     :     0.000000
      g-1     :     0.000000
      g+2     :    -0.000000
      g-2     :     0.000000
      g+3     :     0.000000
      g-3     :     0.000000
      g+4     :     0.000000
      g-4     :    -0.000000
  1 C s       :     0.000000  s :     0.000000
      pz      :    -0.000000  p :    -0.000000
      px      :    -0.000000
      py      :    -0.000000
      dz2     :    -0.000000  d :    -0.000000
      dxz     :    -0.000000
      dyz     :    -0.000000
      dx2y2   :    -0.000000
      dxy     :    -0.000000
      f0      :     0.000000  f :     0.000000
      f+1     :     0.000000
      f-1     :     0.000000
      f+2     :     0.000000
      f-2     :     0.000000
      f+3     :     0.000000
      f-3     :     0.000000
      g0      :     0.000000  g :    -0.000000
      g+1     :     0.000000
      g-1     :     0.000000
      g+2     :     0.000000
      g-2     :    -0.000000
      g+3     :     0.000000
      g-3     :     0.000000
      g+4     :     0.000000
      g-4     :    -0.000000
      h0      :    -0.000000  h :     0.000000
      h+1     :     0.000000
      h-1     :     0.000000
      h+2     :     0.000000
      h-2     :    -0.000000
      h+3     :    -0.000000
      h-3     :    -0.000000
      h+4     :     0.000000
      h-4     :    -0.000000
      h+5     :     0.000000
      h-5     :     0.000000
  2 N s       :     0.000000  s :     0.000000
      pz      :     0.000000  p :     0.000000
      px      :     0.000000
      py      :    -0.000000
      dz2     :    -0.000000  d :    -0.000000
      dxz     :    -0.000000
      dyz     :    -0.000000
      dx2y2   :    -0.000000
      dxy     :    -0.000000
      f0      :    -0.000000  f :     0.000000
      f+1     :     0.000000
      f-1     :     0.000000
      f+2     :    -0.000000
      f-2     :    -0.000000
      f+3     :     0.000000
      f-3     :    -0.000000
      g0      :     0.000000  g :     0.000000
      g+1     :     0.000000
      g-1     :     0.000000
      g+2     :    -0.000000
      g-2     :     0.000000
      g+3     :     0.000000
      g-3     :     0.000000
      g+4     :    -0.000000
      g-4     :     0.000000
      h0      :     0.000000  h :     0.000000
      h+1     :     0.000000
      h-1     :    -0.000000
      h+2     :     0.000000
      h-2     :    -0.000000
      h+3     :     0.000000
      h-3     :    -0.000000
      h+4     :     0.000000
      h-4     :     0.000000
      h+5     :     0.000000
      h-5     :     0.000000


                      *****************************
                      * MAYER POPULATION ANALYSIS *
                      *****************************

  NA   - Mulliken gross atomic population
  ZA   - Total nuclear charge
  QA   - Mulliken gross atomic charge
  VA   - Mayer's total valence
  BVA  - Mayer's bonded valence
  FA   - Mayer's free valence

  ATOM       NA         ZA         QA         VA         BVA        FA
  0 Li     2.2941     3.0000     0.7059     0.4817     0.4817    -0.0000
  1 C      6.3879     6.0000    -0.3879     2.5871     2.5871     0.0000
  2 N      7.3180     7.0000    -0.3180     2.8150     2.8150     0.0000

  Mayer bond orders larger than 0.1
B(  0-Li,  1-C ) :   0.1269 B(  0-Li,  2-N ) :   0.3548 B(  1-C ,  2-N ) :   2.4602 


-------
TIMINGS
-------

Total SCF time: 0 days 0 hours 13 min 4 sec 

Total time                  ....     784.458 sec
Sum of individual times     ....     783.686 sec  ( 99.9%)

Fock matrix formation       ....     780.637 sec  ( 99.5%)
  XC integration            ....      14.196 sec  (  1.8% of F)
    Basis function eval.    ....       0.953 sec  (  6.7% of XC)
    Density eval.           ....       2.857 sec  ( 20.1% of XC)
    XC-Functional eval.     ....       0.135 sec  (  0.9% of XC)
    XC-Potential eval.      ....       9.870 sec  ( 69.5% of XC)
Diagonalization             ....       1.196 sec  (  0.2%)
Density matrix formation    ....       0.021 sec  (  0.0%)
Population analysis         ....       0.098 sec  (  0.0%)
Initial guess               ....       0.679 sec  (  0.1%)
Orbital Transformation      ....       0.000 sec  (  0.0%)
Orbital Orthonormalization  ....       0.000 sec  (  0.0%)
DIIS solution               ....       0.699 sec  (  0.1%)
Grid generation             ....       0.357 sec  (  0.0%)

-------------------------   --------------------
FINAL SINGLE POINT ENERGY      -100.287367252287
-------------------------   --------------------


                            ***************************************
                            *     ORCA property calculations      *
                            ***************************************

                                    ---------------------
                                    Active property flags
                                    ---------------------
   (+) Dipole Moment


------------------------------------------------------------------------------
                       ORCA ELECTRIC PROPERTIES CALCULATION
------------------------------------------------------------------------------

Dipole Moment Calculation                       ... on
Quadrupole Moment Calculation                   ... off
Polarizability Calculation                      ... off
GBWName                                         ... licn_pbe_+0001_x.gbw
Electron density file                           ... licn_pbe_+0001_x.scfp.tmp
The origin for moment calculation is the CENTER OF MASS  = ( 0.079529, -0.023371  0.000000)

-------------
DIPOLE MOMENT
-------------
                                X             Y             Z
Electronic contribution:      3.74763      -1.49042      -0.00000
Nuclear contribution   :     -1.21344       0.53686       0.00000
                        -----------------------------------------
Total Dipole Moment    :      2.53418      -0.95356      -0.00000
                        -----------------------------------------
Magnitude (a.u.)       :      2.70765
Magnitude (Debye)      :      6.88230



--------------------
Rotational spectrum 
--------------------
 
Rotational constants in cm-1:     1.939920     0.831697     0.582124 
Rotational constants in MHz : 58157.349324 24933.635650 17451.642424 

 Dipole components along the rotational axes: 
x,y,z [a.u.] :    -2.699126    -0.214695    -0.000000 
x,y,z [Debye]:    -6.860632    -0.545711    -0.000000 

 

Timings for individual modules:

Sum of individual times         ...      786.351 sec (=  13.106 min)
GTO integral calculation        ...        1.604 sec (=   0.027 min)   0.2 %
SCF iterations                  ...      784.746 sec (=  13.079 min)  99.8 %
                             ****ORCA TERMINATED NORMALLY****
TOTAL RUN TIME: 0 days 0 hours 13 minutes 7 seconds 201 msec
