
                                 *****************
                                 * O   R   C   A *
                                 *****************

           --- An Ab Initio, DFT and Semiempirical electronic structure package ---

                  #######################################################
                  #                        -***-                        #
                  #          Department of theory and spectroscopy      #
                  #               Directorship: Frank Neese             #
                  #        Max Planck Institute fuer Kohlenforschung    #
                  #                Kaiser Wilhelm Platz 1               #
                  #                 D-45470 Muelheim/Ruhr               #
                  #                      Germany                        #
                  #                                                     #
                  #                  All rights reserved                #
                  #                        -***-                        #
                  #######################################################


                         Program Version 4.1.2  - RELEASE  -


 With contributions from (in alphabetic order):
   Daniel Aravena         : Magnetic Properties
   Michael Atanasov       : Ab Initio Ligand Field Theory
   Alexander A. Auer      : GIAO ZORA
   Ute Becker             : Parallelization
   Giovanni Bistoni       : ED, Open-shell LED
   Martin Brehm           : Molecular dynamics
   Dmytro Bykov           : SCF Hessian
   Vijay G. Chilkuri      : MRCI spin determinant printing
   Dipayan Datta          : RHF DLPNO-CCSD density
   Achintya Kumar Dutta   : EOM-CC, STEOM-CC
   Dmitry Ganyushin       : Spin-Orbit,Spin-Spin,Magnetic field MRCI
   Miquel Garcia          : C-PCM Hessian
   Yang Guo               : DLPNO-NEVPT2, CIM, IAO-localization
   Andreas Hansen         : Spin unrestricted coupled pair/coupled cluster methods
   Benjamin Helmich-Paris : CASSCF linear response (MC-RPA)
   Lee Huntington         : MR-EOM, pCC
   Robert Izsak           : Overlap fitted RIJCOSX, COSX-SCS-MP3, EOM
   Christian Kollmar      : KDIIS, OOCD, Brueckner-CCSD(T), CCSD density
   Simone Kossmann        : Meta GGA functionals, TD-DFT gradient, OOMP2, MP2 Hessian
   Martin Krupicka        : AUTO-CI
   Lucas Lang             : DCDCAS
   Dagmar Lenk            : GEPOL surface, SMD
   Dimitrios Liakos       : Extrapolation schemes; parallel MDCI
   Dimitrios Manganas     : ROCIS; embedding schemes
   Dimitrios Pantazis     : SARC Basis sets
   Taras Petrenko         : DFT Hessian,TD-DFT gradient, ASA, ECA, R-Raman, ABS, FL, XAS/XES, NRVS
   Peter Pinski           : DLPNO-MP2, DLPNO-MP2 Gradient
   Christoph Reimann      : Effective Core Potentials
   Marius Retegan         : Local ZFS, SOC
   Christoph Riplinger    : Optimizer, TS searches, QM/MM, DLPNO-CCSD(T), (RO)-DLPNO pert. Triples
   Tobias Risthaus        : Range-separated hybrids, TD-DFT gradient, RPA, STAB
   Michael Roemelt        : Restricted open shell CIS
   Masaaki Saitow         : Open-shell DLPNO
   Barbara Sandhoefer     : DKH picture change effects
   Avijit Sen             : IP-ROCIS
   Kantharuban Sivalingam : CASSCF convergence, NEVPT2, FIC-MRCI
   Bernardo de Souza      : ESD, SOC TD-DFT
   Georgi Stoychev        : AutoAux, RI-MP2 NMR
   Willem Van den Heuvel  : Paramagnetic NMR
   Boris Wezisla          : Elementary symmetry handling
   Frank Wennmohs         : Technical directorship


 We gratefully acknowledge several colleagues who have allowed us to
 interface, adapt or use parts of their codes:
   Stefan Grimme, W. Hujo, H. Kruse,             : VdW corrections, initial TS optimization,
                  C. Bannwarth                     DFT functionals, gCP, sTDA/sTD-DF
   Ed Valeev                                     : LibInt (2-el integral package), F12 methods
   Garnet Chan, S. Sharma, J. Yang, R. Olivares  : DMRG
   Ulf Ekstrom                                   : XCFun DFT Library
   Mihaly Kallay                                 : mrcc  (arbitrary order and MRCC methods)
   Andreas Klamt, Michael Diedenhofen            : otool_cosmo (COSMO solvation model)
   Jiri Pittner, Ondrej Demel                    : Mk-CCSD
   Frank Weinhold                                : gennbo (NPA and NBO analysis)
   Christopher J. Cramer and Donald G. Truhlar   : smd solvation model
   Lars Goerigk                                  : TD-DFT with DH, B97 family of functionals
   V. Asgeirsson, H. Jonsson                     : NEB implementation
   FAccTs GmbH                                   : IRC, NEB, NEB-TS, Multilevel


 Your calculation uses the libint2 library for the computation of 2-el integrals
 For citations please refer to: http://libint.valeyev.net

 This ORCA versions uses:
   CBLAS   interface :  Fast vector & matrix operations
   LAPACKE interface :  Fast linear algebra routines
   SCALAPACK package :  Parallel linear algebra routines


----- Orbital basis set information -----
Your calculation utilizes the basis: aug-pc-4
   H, C-F              : F. Jensen, J. Chem. Phys. 115, 9113 (2001).
                         F. Jensen, J. Chem. Phys. 116, 7372 (2002).
                         F. Jensen, J. Chem. Phys. 117, 9234 (2002).
   Si-Cl               : F. Jensen, T. Helgaker, J. Chem. Phys. 121, 3463 (2004).
   He-B, Ne-Mg, Al, Ar : F. Jensen, J. Phys. Chem. A 111, 11198 (2007).
   K, Ca, Ga-Kr        : F. Jensen, J. Chem. Phys. 136, 094110 (2012).
   Sc-Zn               : F. Jensen, J. Chem. Phys. 138, 014107 (2013).

================================================================================
                                        WARNINGS
                       Please study these warnings very carefully!
================================================================================


INFO   : the flag for use of LIBINT has been found!

================================================================================
                                       INPUT FILE
================================================================================
NAME = nacl_pbe_00.inp
|  1> !uks pbe nori aug-pc-4 grid5 nofinalgrid verytightscf
|  2> 
|  3> %maxcore 6000
|  4> 
|  5> %pal nprocs 4 end
|  6> 
|  7> %scf
|  8> 	efield 0.0, 0.0, 0.0
|  9> 	maxiter 200
| 10> end
| 11> 
| 12> * xyz 0 1
| 13> Na 0.0000 0.0000 0.0000
| 14> Cl 0.0000 0.0000 2.3608
| 15> *
| 16> 
| 17>                          ****END OF INPUT****
================================================================================

                       ****************************
                       * Single Point Calculation *
                       ****************************

---------------------------------
CARTESIAN COORDINATES (ANGSTROEM)
---------------------------------
  Na     0.000000    0.000000    0.000000
  Cl     0.000000    0.000000    2.360800

----------------------------
CARTESIAN COORDINATES (A.U.)
----------------------------
  NO LB      ZA    FRAG     MASS         X           Y           Z
   0 Na   11.0000    0    22.990    0.000000    0.000000    0.000000
   1 Cl   17.0000    0    35.453    0.000000    0.000000    4.461265

--------------------------------
INTERNAL COORDINATES (ANGSTROEM)
--------------------------------
 Na     0   0   0     0.000000000000     0.00000000     0.00000000
 Cl     1   0   0     2.360800000000     0.00000000     0.00000000

---------------------------
INTERNAL COORDINATES (A.U.)
---------------------------
 Na     0   0   0     0.000000000000     0.00000000     0.00000000
 Cl     1   0   0     4.461265456961     0.00000000     0.00000000

---------------------
BASIS SET INFORMATION
---------------------
There are 2 groups of distinct atoms

 Group   1 Type Na  : 44s16p4d3f2g contracted to 8s6p4d3f2g pattern {15111311111/1111111/1111/111/11}
 Group   2 Type Cl  : 44s27p7d4f3g2h contracted to 8s7p7d4f3g2h pattern {15121211111/111111111/1111111/1111/111/11}

Atom   0Na   basis set group =>   1
Atom   1Cl   basis set group =>   2


           ************************************************************
           *        Program running with 4 parallel MPI-processes     *
           *              working on a common directory               *
           ************************************************************
------------------------------------------------------------------------------
                           ORCA GTO INTEGRAL CALCULATION
------------------------------------------------------------------------------

                         BASIS SET STATISTICS AND STARTUP INFO

 # of primitive gaussian shells          ...  156
 # of primitive gaussian functions       ...  388
 # of contracted shells                  ...   54
 # of contracted basis functions         ...  226
 Highest angular momentum                ...    5
 Maximum contraction depth               ...   15
 Integral package used                   ... LIBINT
 Integral threshhold            Thresh   ...  1.000e-12
 Primitive cut-off              TCut     ...  1.000e-14


------------------------------ INTEGRAL EVALUATION ----------------------------


 * One electron integrals 
 Pre-screening matrix                    ... done
 Shell pair data                         ... done (   0.001 sec)



           ************************************************************
           *        Program running with 4 parallel MPI-processes     *
           *              working on a common directory               *
           ************************************************************
-------------------------------------------------------------------------------
                                 ORCA SCF
-------------------------------------------------------------------------------

------------
SCF SETTINGS
------------
Hamiltonian:
 Density Functional     Method          .... DFT(GTOs)
 Exchange Functional    Exchange        .... PBE
   PBE kappa parameter   XKappa         ....  0.804000
   PBE mue parameter    XMuePBE         ....  0.219520
 Correlation Functional Correlation     .... PBE
   PBE beta parameter  CBetaPBE         ....  0.066725
 LDA part of GGA corr.  LDAOpt          .... PW91-LDA
 Gradients option       PostSCFGGA      .... off
   Density functional embedding theory  .... OFF
   NL short-range parameter             ....  6.400000


General Settings:
 Integral files         IntName         .... nacl_pbe_00
 Hartree-Fock type      HFTyp           .... UHF
 Total Charge           Charge          ....    0
 Multiplicity           Mult            ....    1
 Number of Electrons    NEL             ....   28
 Basis Dimension        Dim             ....  226
 Nuclear Repulsion      ENuc            ....     41.9163579939 Eh

Convergence Acceleration:
 DIIS                   CNVDIIS         .... on
   Start iteration      DIISMaxIt       ....    12
   Startup error        DIISStart       ....  0.200000
   # of expansion vecs  DIISMaxEq       ....     5
   Bias factor          DIISBfac        ....   1.050
   Max. coefficient     DIISMaxC        ....  10.000
 Newton-Raphson         CNVNR           .... off
 SOSCF                  CNVSOSCF        .... off
 Level Shifting         CNVShift        .... on
   Level shift para.    LevelShift      ....    0.2500
   Turn off err/grad.   ShiftErr        ....    0.0010
 Zerner damping         CNVZerner       .... off
 Static damping         CNVDamp         .... on
   Fraction old density DampFac         ....    0.7000
   Max. Damping (<1)    DampMax         ....    0.9800
   Min. Damping (>=0)   DampMin         ....    0.0000
   Turn off err/grad.   DampErr         ....    0.1000
 Fernandez-Rico         CNVRico         .... off

SCF Procedure:
 Maximum # iterations   MaxIter         ....   200
 SCF integral mode      SCFMode         .... Direct
   Integral package                     .... LIBINT
 Reset frequency        DirectResetFreq ....    20
 Integral Threshold     Thresh          ....  1.000e-12 Eh
 Primitive CutOff       TCut            ....  1.000e-14 Eh

Convergence Tolerance:
 Convergence Check Mode ConvCheckMode   .... Total+1el-Energy
 Convergence forced     ConvForced      .... 0
 Energy Change          TolE            ....  1.000e-09 Eh
 1-El. energy change                    ....  1.000e-06 Eh
 DIIS Error             TolErr          ....  1.000e-08


Diagonalization of the overlap matrix:
Smallest eigenvalue                        ... 4.489e-05
Time for diagonalization                   ...    0.008 sec
Threshold for overlap eigenvalues          ... 1.000e-08
Number of eigenvalues below threshold      ... 0
Time for construction of square roots      ...    0.009 sec
Total time needed                          ...    0.017 sec

-------------------
DFT GRID GENERATION
-------------------

General Integration Accuracy     IntAcc      ...  5.010
Radial Grid Type                 RadialGrid  ... Gauss-Chebyshev
Angular Grid (max. acc.)         AngularGrid ... Lebedev-434
Angular grid pruning method      GridPruning ... 3 (G Style)
Weight generation scheme         WeightScheme... Becke
Basis function cutoff            BFCut       ...    1.0000e-12
Integration weight cutoff        WCut        ...    1.0000e-14
Grids for H and He will be reduced by one unit

# of grid points (after initial pruning)     ...  23144 (   0.0 sec)
# of grid points (after weights+screening)   ...  23087 (   0.0 sec)
nearest neighbour list constructed           ...    0.0 sec
Grid point re-assignment to atoms done       ...    0.0 sec
Grid point division into batches done        ...    0.2 sec
Reduced shell lists constructed in    0.3 sec

Total number of grid points                  ...    23087
Total number of batches                      ...      362
Average number of points per batch           ...       63
Average number of grid points per atom       ...    11544
Average number of shells per batch           ...    31.72 (58.74%)
Average number of basis functions per batch  ...   129.02 (57.09%)
Average number of large shells per batch     ...    27.12 (85.50%)
Average number of large basis fcns per batch ...   110.40 (85.57%)
Maximum spatial batch extension              ...  26.20, 26.20, 24.33 au
Average spatial batch extension              ...   2.07,  2.02,  1.79 au

Time for grid setup =    0.276 sec

------------------------------
INITIAL GUESS: MODEL POTENTIAL
------------------------------
Loading Hartree-Fock densities                     ... done
Calculating cut-offs                               ... done
Setting up the integral package                    ... done
Initializing the effective Hamiltonian             ... done
Starting the Coulomb interaction                   ... done (   0.0 sec)
Reading the grid                                   ... done
Mapping shells                                     ... done
Starting the XC term evaluation                    ... done (   0.1 sec)
  promolecular density results
     # of electrons  =     27.999986799
     EX              =    -41.306034510
     EC              =     -1.033162326
     EX+EC           =    -42.339196836
Transforming the Hamiltonian                       ... done (   0.0 sec)
Diagonalizing the Hamiltonian                      ... done (   0.0 sec)
Back transforming the eigenvectors                 ... done (   0.0 sec)
Now organizing SCF variables                       ... done
                      ------------------
                      INITIAL GUESS DONE (   0.6 sec)
                      ------------------
--------------
SCF ITERATIONS
--------------
ITER       Energy         Delta-E        Max-DP      RMS-DP      [F,P]     Damp
               ***  Starting incremental Fock matrix formation  ***
  0   -622.2404815154   0.000000000000 0.04153073  0.00045171  0.1449190 0.7000
  1   -622.2679832219  -0.027501706535 0.02029426  0.00029763  0.0736664 0.7000
                               ***Turning on DIIS***
  2   -622.2789867676  -0.011003545639 0.03036776  0.00046406  0.0245958 0.0000
  3   -622.2886715229  -0.009684755288 0.02144261  0.00021297  0.0589890 0.0000
  4   -622.2960418869  -0.007370364014 0.00359164  0.00006874  0.0203115 0.0000
  5   -622.2969472197  -0.000905332811 0.00142873  0.00002906  0.0083093 0.0000
  6   -622.2971261931  -0.000178973383 0.00086757  0.00001453  0.0035841 0.0000
  7   -622.2971640111  -0.000037818065 0.00064857  0.00000921  0.0018736 0.0000
  8   -622.2971746209  -0.000010609786 0.00038607  0.00000488  0.0011128 0.0000
  9   -622.2971780984  -0.000003477456 0.00047416  0.00000660  0.0006924 0.0000
 10   -622.2971801600  -0.000002061573 0.00007011  0.00000093  0.0001364 0.0000
 11   -622.2971801841  -0.000000024132 0.00001497  0.00000022  0.0000850 0.0000
 12   -622.2971801930  -0.000000008944 0.00002414  0.00000022  0.0000054 0.0000
 13   -622.2971801931  -0.000000000045 0.00001055  0.00000009  0.0000034 0.0000
 14   -622.2971801931  -0.000000000011 0.00000158  0.00000001  0.0000006 0.0000
 15   -622.2971801931  -0.000000000004 0.00000062  0.00000001  0.0000001 0.0000
 16   -622.2971801931  -0.000000000000 0.00000128  0.00000001  0.0000001 0.0000
                 **** Energy Check signals convergence ****

               *****************************************************
               *                     SUCCESS                       *
               *           SCF CONVERGED AFTER  17 CYCLES          *
               *****************************************************


----------------
TOTAL SCF ENERGY
----------------

Total Energy       :         -622.29718019 Eh          -16933.56716 eV

Components:
Nuclear Repulsion  :           41.91635799 Eh            1140.60209 eV
Electronic Energy  :         -664.21353819 Eh          -18074.16925 eV
One Electron Energy:         -948.97235535 Eh          -25822.85060 eV
Two Electron Energy:          284.75881716 Eh            7748.68135 eV

Virial components:
Potential Energy   :        -1244.05747940 Eh          -33852.52504 eV
Kinetic Energy     :          621.76029921 Eh           16918.95788 eV
Virial Ratio       :            2.00086349


DFT components:
N(Alpha)           :       13.999994721393 electrons
N(Beta)            :       13.999994721393 electrons
N(Total)           :       27.999989442786 electrons
E(X)               :      -41.407353599495 Eh       
E(C)               :       -1.045652311980 Eh       
E(XC)              :      -42.453005911475 Eh       
DFET-embed. en.    :        0.000000000000 Eh       

---------------
SCF CONVERGENCE
---------------

  Last Energy change         ...   -4.4338e-12  Tolerance :   1.0000e-09
  Last MAX-Density change    ...    4.5231e-07  Tolerance :   1.0000e-08
  Last RMS-Density change    ...    5.1807e-09  Tolerance :   1.0000e-09
  Last DIIS Error            ...    4.0741e-09  Tolerance :   1.0000e-08

             **** THE GBW FILE WAS UPDATED (nacl_pbe_00.gbw) ****
             **** DENSITY FILE WAS UPDATED (nacl_pbe_00.scfp.tmp) ****
             **** ENERGY FILE WAS UPDATED (nacl_pbe_00.en.tmp) ****
----------------------
UHF SPIN CONTAMINATION
----------------------

Warning: in a DFT calculation there is little theoretical justification to 
         calculate <S**2> as in Hartree-Fock theory. We will do it anyways
         but you should keep in mind that the values have only limited relevance

Expectation value of <S**2>     :    -0.000000
Ideal value S*(S+1) for S=0.0   :     0.000000
Deviation                       :    -0.000000

----------------
ORBITAL ENERGIES
----------------
                 SPIN UP ORBITALS
  NO   OCC          E(Eh)            E(eV) 
   0   1.0000    -100.534664     -2735.6873 
   1   1.0000     -37.929781     -1032.1218 
   2   1.0000      -9.059311      -246.5164 
   3   1.0000      -6.876151      -187.1096 
   4   1.0000      -6.874699      -187.0701 
   5   1.0000      -6.874699      -187.0701 
   6   1.0000      -2.098590       -57.1055 
   7   1.0000      -1.074858       -29.2484 
   8   1.0000      -1.074858       -29.2484 
   9   1.0000      -1.072821       -29.1930 
  10   1.0000      -0.620305       -16.8793 
  11   1.0000      -0.211874        -5.7654 
  12   1.0000      -0.194497        -5.2925 
  13   1.0000      -0.194497        -5.2925 
  14   0.0000      -0.082372        -2.2414 
  15   0.0000      -0.010320        -0.2808 
  16   0.0000      -0.010320        -0.2808 
  17   0.0000      -0.000721        -0.0196 
  18   0.0000       0.005287         0.1439 
  19   0.0000       0.017441         0.4746 
  20   0.0000       0.017441         0.4746 
  21   0.0000       0.025397         0.6911 
  22   0.0000       0.027573         0.7503 
  23   0.0000       0.037256         1.0138 
  24   0.0000       0.037256         1.0138 
  25   0.0000       0.041565         1.1310 
  26   0.0000       0.041565         1.1310 
  27   0.0000       0.044691         1.2161 
  28   0.0000       0.067832         1.8458 
  29   0.0000       0.067832         1.8458 
  30   0.0000       0.072842         1.9821 
  31   0.0000       0.075940         2.0664 
  32   0.0000       0.075940         2.0664 
  33   0.0000       0.080474         2.1898 
  34   0.0000       0.082167         2.2359 
  35   0.0000       0.082167         2.2359 
  36   0.0000       0.084407         2.2968 
  37   0.0000       0.084407         2.2968 
  38   0.0000       0.096110         2.6153 
  39   0.0000       0.109397         2.9768 
  40   0.0000       0.109397         2.9768 
  41   0.0000       0.114175         3.1069 
  42   0.0000       0.132485         3.6051 
  43   0.0000       0.132485         3.6051 
  44   0.0000       0.134614         3.6630 
  45   0.0000       0.134614         3.6630 
  46   0.0000       0.137127         3.7314 
  47   0.0000       0.137127         3.7314 
  48   0.0000       0.138354         3.7648 
  49   0.0000       0.138354         3.7648 
  50   0.0000       0.140081         3.8118 
  51   0.0000       0.163629         4.4526 
  52   0.0000       0.176129         4.7927 
  53   0.0000       0.176129         4.7927 
  54   0.0000       0.190588         5.1862 
  55   0.0000       0.190588         5.1862 
  56   0.0000       0.202992         5.5237 
  57   0.0000       0.202992         5.5237 
  58   0.0000       0.219340         5.9686 
  59   0.0000       0.226672         6.1681 
  60   0.0000       0.229161         6.2358 
  61   0.0000       0.229161         6.2358 
  62   0.0000       0.271933         7.3997 
  63   0.0000       0.295460         8.0399 
  64   0.0000       0.295460         8.0399 
  65   0.0000       0.296634         8.0718 
  66   0.0000       0.373864        10.1734 
  67   0.0000       0.373864        10.1734 
  68   0.0000       0.374605        10.1935 
  69   0.0000       0.374605        10.1935 
  70   0.0000       0.403794        10.9878 
  71   0.0000       0.411256        11.1908 
  72   0.0000       0.411256        11.1908 
  73   0.0000       0.411390        11.1945 
  74   0.0000       0.411390        11.1945 
  75   0.0000       0.424402        11.5486 
  76   0.0000       0.426693        11.6109 
  77   0.0000       0.426693        11.6109 
  78   0.0000       0.527255        14.3473 
  79   0.0000       0.527255        14.3473 
  80   0.0000       0.536409        14.5964 
  81   0.0000       0.536409        14.5964 
  82   0.0000       0.539082        14.6692 
  83   0.0000       0.569202        15.4888 
  84   0.0000       0.569202        15.4888 
  85   0.0000       0.579423        15.7669 
  86   0.0000       0.579423        15.7669 
  87   0.0000       0.588226        16.0064 
  88   0.0000       0.611514        16.6401 
  89   0.0000       0.611514        16.6401 
  90   0.0000       0.615422        16.7465 
  91   0.0000       0.615422        16.7465 
  92   0.0000       0.618943        16.8423 
  93   0.0000       0.698198        18.9989 
  94   0.0000       0.761859        20.7312 
  95   0.0000       0.761859        20.7312 
  96   0.0000       0.787346        21.4248 
  97   0.0000       0.787346        21.4248 
  98   0.0000       0.811687        22.0871 
  99   0.0000       0.811687        22.0871 
 100   0.0000       0.821349        22.3500 
 101   0.0000       0.821349        22.3500 
 102   0.0000       0.834918        22.7193 
 103   0.0000       0.851087        23.1593 
 104   0.0000       0.851088        23.1593 
 105   0.0000       0.876273        23.8446 
 106   0.0000       0.876273        23.8446 
 107   0.0000       0.934918        25.4404 
 108   0.0000       0.934921        25.4405 
 109   0.0000       0.964241        26.2383 
 110   0.0000       1.005975        27.3740 
 111   0.0000       1.005975        27.3740 
 112   0.0000       1.016762        27.6675 
 113   0.0000       1.016762        27.6675 
 114   0.0000       1.037760        28.2389 
 115   0.0000       1.083670        29.4882 
 116   0.0000       1.083670        29.4882 
 117   0.0000       1.118206        30.4279 
 118   0.0000       1.118206        30.4279 
 119   0.0000       1.175022        31.9740 
 120   0.0000       1.317239        35.8439 
 121   0.0000       1.317239        35.8439 
 122   0.0000       1.346219        36.6325 
 123   0.0000       1.346219        36.6325 
 124   0.0000       1.365755        37.1641 
 125   0.0000       1.376237        37.4493 
 126   0.0000       1.376237        37.4493 
 127   0.0000       1.431387        38.9500 
 128   0.0000       1.431388        38.9500 
 129   0.0000       1.455436        39.6044 
 130   0.0000       1.477910        40.2160 
 131   0.0000       1.477910        40.2160 
 132   0.0000       1.546908        42.0935 
 133   0.0000       1.546908        42.0935 
 134   0.0000       1.563828        42.5539 
 135   0.0000       1.563828        42.5539 
 136   0.0000       1.680661        45.7331 
 137   0.0000       1.680662        45.7331 
 138   0.0000       1.693479        46.0819 
 139   0.0000       1.747967        47.5646 
 140   0.0000       1.747967        47.5646 
 141   0.0000       1.912273        52.0356 
 142   0.0000       1.912273        52.0356 
 143   0.0000       1.935952        52.6799 
 144   0.0000       1.984575        54.0030 
 145   0.0000       2.255373        61.3718 
 146   0.0000       2.255386        61.3722 
 147   0.0000       2.446370        66.5691 
 148   0.0000       2.446370        66.5691 
 149   0.0000       2.473861        67.3172 
 150   0.0000       2.938785        79.9684 
 151   0.0000       2.938854        79.9703 
 152   0.0000       2.938865        79.9706 
 153   0.0000       2.938865        79.9706 
 154   0.0000       3.030578        82.4662 
 155   0.0000       3.030583        82.4664 
 156   0.0000       3.077275        83.7369 
 157   0.0000       3.128734        85.1372 
 158   0.0000       3.128734        85.1372 
 159   0.0000       3.588763        97.6552 
 160   0.0000       3.588763        97.6552 
 161   0.0000       3.643655        99.1489 
 162   0.0000       3.643664        99.1491 
 163   0.0000       3.648133        99.2708 
 164   0.0000       3.835583       104.3715 
 165   0.0000       3.835583       104.3715 
 166   0.0000       3.844038       104.6016 
 167   0.0000       3.950493       107.4984 
 168   0.0000       3.950493       107.4984 
 169   0.0000       4.081510       111.0635 
 170   0.0000       4.089040       111.2684 
 171   0.0000       4.089041       111.2685 
 172   0.0000       4.169823       113.4667 
 173   0.0000       4.169823       113.4667 
 174   0.0000       4.293034       116.8194 
 175   0.0000       4.815347       131.0323 
 176   0.0000       4.815347       131.0323 
 177   0.0000       4.972573       135.3106 
 178   0.0000       5.550287       151.0310 
 179   0.0000       5.550291       151.0311 
 180   0.0000       5.632332       153.2635 
 181   0.0000       5.632332       153.2635 
 182   0.0000       5.634803       153.3308 
 183   0.0000       5.774934       157.1439 
 184   0.0000       5.774934       157.1439 
 185   0.0000       5.776749       157.1933 
 186   0.0000       5.776842       157.1959 
 187   0.0000       5.781219       157.3150 
 188   0.0000       5.781219       157.3150 
 189   0.0000       5.799484       157.8120 
 190   0.0000       5.799510       157.8127 
 191   0.0000       5.819962       158.3692 
 192   0.0000       5.819962       158.3692 
 193   0.0000       5.839305       158.8956 
 194   0.0000       5.839477       158.9002 
 195   0.0000       5.847204       159.1105 
 196   0.0000       5.981628       162.7684 
 197   0.0000       5.981628       162.7684 
 198   0.0000       6.382656       173.6809 
 199   0.0000       9.203762       250.4471 
 200   0.0000       9.203762       250.4471 
 201   0.0000       9.204043       250.4547 
 202   0.0000       9.204789       250.4751 
 203   0.0000       9.246976       251.6230 
 204   0.0000       9.247175       251.6284 
 205   0.0000       9.319704       253.6020 
 206   0.0000       9.319704       253.6020 
 207   0.0000       9.323455       253.7041 
 208   0.0000      12.944769       352.2451 
 209   0.0000      12.944769       352.2451 
 210   0.0000      12.971518       352.9730 
 211   0.0000      12.971754       352.9794 
 212   0.0000      13.060465       355.3933 
 213   0.0000      13.060465       355.3933 
 214   0.0000      13.119389       356.9967 
 215   0.0000      17.695920       481.5305 
 216   0.0000      17.696052       481.5341 
 217   0.0000      17.779949       483.8170 
 218   0.0000      17.779949       483.8170 
 219   0.0000      17.853190       485.8100 
 220   0.0000      37.820779      1029.1557 
 221   0.0000      65.898134      1793.1794 
 222   0.0000      65.898134      1793.1794 
 223   0.0000      65.948944      1794.5620 
 224   0.0000      65.948944      1794.5620 
 225   0.0000      65.995283      1795.8230 

                 SPIN DOWN ORBITALS
  NO   OCC          E(Eh)            E(eV) 
   0   1.0000    -100.534664     -2735.6873 
   1   1.0000     -37.929781     -1032.1218 
   2   1.0000      -9.059311      -246.5164 
   3   1.0000      -6.876151      -187.1096 
   4   1.0000      -6.874699      -187.0701 
   5   1.0000      -6.874699      -187.0701 
   6   1.0000      -2.098590       -57.1055 
   7   1.0000      -1.074858       -29.2484 
   8   1.0000      -1.074858       -29.2484 
   9   1.0000      -1.072821       -29.1930 
  10   1.0000      -0.620305       -16.8793 
  11   1.0000      -0.211874        -5.7654 
  12   1.0000      -0.194497        -5.2925 
  13   1.0000      -0.194497        -5.2925 
  14   0.0000      -0.082372        -2.2414 
  15   0.0000      -0.010320        -0.2808 
  16   0.0000      -0.010320        -0.2808 
  17   0.0000      -0.000721        -0.0196 
  18   0.0000       0.005287         0.1439 
  19   0.0000       0.017441         0.4746 
  20   0.0000       0.017441         0.4746 
  21   0.0000       0.025397         0.6911 
  22   0.0000       0.027573         0.7503 
  23   0.0000       0.037256         1.0138 
  24   0.0000       0.037256         1.0138 
  25   0.0000       0.041565         1.1310 
  26   0.0000       0.041565         1.1310 
  27   0.0000       0.044691         1.2161 
  28   0.0000       0.067832         1.8458 
  29   0.0000       0.067832         1.8458 
  30   0.0000       0.072842         1.9821 
  31   0.0000       0.075940         2.0664 
  32   0.0000       0.075940         2.0664 
  33   0.0000       0.080474         2.1898 
  34   0.0000       0.082167         2.2359 
  35   0.0000       0.082167         2.2359 
  36   0.0000       0.084407         2.2968 
  37   0.0000       0.084407         2.2968 
  38   0.0000       0.096110         2.6153 
  39   0.0000       0.109397         2.9768 
  40   0.0000       0.109397         2.9768 
  41   0.0000       0.114175         3.1069 
  42   0.0000       0.132485         3.6051 
  43   0.0000       0.132485         3.6051 
  44   0.0000       0.134614         3.6630 
  45   0.0000       0.134614         3.6630 
  46   0.0000       0.137127         3.7314 
  47   0.0000       0.137127         3.7314 
  48   0.0000       0.138354         3.7648 
  49   0.0000       0.138354         3.7648 
  50   0.0000       0.140081         3.8118 
  51   0.0000       0.163629         4.4526 
  52   0.0000       0.176129         4.7927 
  53   0.0000       0.176129         4.7927 
  54   0.0000       0.190588         5.1862 
  55   0.0000       0.190588         5.1862 
  56   0.0000       0.202992         5.5237 
  57   0.0000       0.202992         5.5237 
  58   0.0000       0.219340         5.9686 
  59   0.0000       0.226672         6.1681 
  60   0.0000       0.229161         6.2358 
  61   0.0000       0.229161         6.2358 
  62   0.0000       0.271933         7.3997 
  63   0.0000       0.295460         8.0399 
  64   0.0000       0.295460         8.0399 
  65   0.0000       0.296634         8.0718 
  66   0.0000       0.373864        10.1734 
  67   0.0000       0.373864        10.1734 
  68   0.0000       0.374605        10.1935 
  69   0.0000       0.374605        10.1935 
  70   0.0000       0.403794        10.9878 
  71   0.0000       0.411256        11.1908 
  72   0.0000       0.411256        11.1908 
  73   0.0000       0.411390        11.1945 
  74   0.0000       0.411390        11.1945 
  75   0.0000       0.424402        11.5486 
  76   0.0000       0.426693        11.6109 
  77   0.0000       0.426693        11.6109 
  78   0.0000       0.527255        14.3473 
  79   0.0000       0.527255        14.3473 
  80   0.0000       0.536409        14.5964 
  81   0.0000       0.536409        14.5964 
  82   0.0000       0.539082        14.6692 
  83   0.0000       0.569202        15.4888 
  84   0.0000       0.569202        15.4888 
  85   0.0000       0.579423        15.7669 
  86   0.0000       0.579423        15.7669 
  87   0.0000       0.588226        16.0064 
  88   0.0000       0.611514        16.6401 
  89   0.0000       0.611514        16.6401 
  90   0.0000       0.615422        16.7465 
  91   0.0000       0.615422        16.7465 
  92   0.0000       0.618943        16.8423 
  93   0.0000       0.698198        18.9989 
  94   0.0000       0.761859        20.7312 
  95   0.0000       0.761859        20.7312 
  96   0.0000       0.787346        21.4248 
  97   0.0000       0.787346        21.4248 
  98   0.0000       0.811687        22.0871 
  99   0.0000       0.811687        22.0871 
 100   0.0000       0.821349        22.3500 
 101   0.0000       0.821349        22.3500 
 102   0.0000       0.834918        22.7193 
 103   0.0000       0.851087        23.1593 
 104   0.0000       0.851088        23.1593 
 105   0.0000       0.876273        23.8446 
 106   0.0000       0.876273        23.8446 
 107   0.0000       0.934918        25.4404 
 108   0.0000       0.934921        25.4405 
 109   0.0000       0.964241        26.2383 
 110   0.0000       1.005975        27.3740 
 111   0.0000       1.005975        27.3740 
 112   0.0000       1.016762        27.6675 
 113   0.0000       1.016762        27.6675 
 114   0.0000       1.037760        28.2389 
 115   0.0000       1.083670        29.4882 
 116   0.0000       1.083670        29.4882 
 117   0.0000       1.118206        30.4279 
 118   0.0000       1.118206        30.4279 
 119   0.0000       1.175022        31.9740 
 120   0.0000       1.317239        35.8439 
 121   0.0000       1.317239        35.8439 
 122   0.0000       1.346219        36.6325 
 123   0.0000       1.346219        36.6325 
 124   0.0000       1.365755        37.1641 
 125   0.0000       1.376237        37.4493 
 126   0.0000       1.376237        37.4493 
 127   0.0000       1.431387        38.9500 
 128   0.0000       1.431388        38.9500 
 129   0.0000       1.455436        39.6044 
 130   0.0000       1.477910        40.2160 
 131   0.0000       1.477910        40.2160 
 132   0.0000       1.546908        42.0935 
 133   0.0000       1.546908        42.0935 
 134   0.0000       1.563828        42.5539 
 135   0.0000       1.563828        42.5539 
 136   0.0000       1.680661        45.7331 
 137   0.0000       1.680662        45.7331 
 138   0.0000       1.693479        46.0819 
 139   0.0000       1.747967        47.5646 
 140   0.0000       1.747967        47.5646 
 141   0.0000       1.912273        52.0356 
 142   0.0000       1.912273        52.0356 
 143   0.0000       1.935952        52.6799 
 144   0.0000       1.984575        54.0030 
 145   0.0000       2.255373        61.3718 
 146   0.0000       2.255386        61.3722 
 147   0.0000       2.446370        66.5691 
 148   0.0000       2.446370        66.5691 
 149   0.0000       2.473861        67.3172 
 150   0.0000       2.938785        79.9684 
 151   0.0000       2.938854        79.9703 
 152   0.0000       2.938865        79.9706 
 153   0.0000       2.938865        79.9706 
 154   0.0000       3.030578        82.4662 
 155   0.0000       3.030583        82.4664 
 156   0.0000       3.077275        83.7369 
 157   0.0000       3.128734        85.1372 
 158   0.0000       3.128734        85.1372 
 159   0.0000       3.588763        97.6552 
 160   0.0000       3.588763        97.6552 
 161   0.0000       3.643655        99.1489 
 162   0.0000       3.643664        99.1491 
 163   0.0000       3.648133        99.2708 
 164   0.0000       3.835583       104.3715 
 165   0.0000       3.835583       104.3715 
 166   0.0000       3.844038       104.6016 
 167   0.0000       3.950493       107.4984 
 168   0.0000       3.950493       107.4984 
 169   0.0000       4.081510       111.0635 
 170   0.0000       4.089040       111.2684 
 171   0.0000       4.089041       111.2685 
 172   0.0000       4.169823       113.4667 
 173   0.0000       4.169823       113.4667 
 174   0.0000       4.293034       116.8194 
 175   0.0000       4.815347       131.0323 
 176   0.0000       4.815347       131.0323 
 177   0.0000       4.972573       135.3106 
 178   0.0000       5.550287       151.0310 
 179   0.0000       5.550291       151.0311 
 180   0.0000       5.632332       153.2635 
 181   0.0000       5.632332       153.2635 
 182   0.0000       5.634803       153.3308 
 183   0.0000       5.774934       157.1439 
 184   0.0000       5.774934       157.1439 
 185   0.0000       5.776749       157.1933 
 186   0.0000       5.776842       157.1959 
 187   0.0000       5.781219       157.3150 
 188   0.0000       5.781219       157.3150 
 189   0.0000       5.799484       157.8120 
 190   0.0000       5.799510       157.8127 
 191   0.0000       5.819962       158.3692 
 192   0.0000       5.819962       158.3692 
 193   0.0000       5.839305       158.8956 
 194   0.0000       5.839477       158.9002 
 195   0.0000       5.847204       159.1105 
 196   0.0000       5.981628       162.7684 
 197   0.0000       5.981628       162.7684 
 198   0.0000       6.382656       173.6809 
 199   0.0000       9.203762       250.4471 
 200   0.0000       9.203762       250.4471 
 201   0.0000       9.204043       250.4547 
 202   0.0000       9.204789       250.4751 
 203   0.0000       9.246976       251.6230 
 204   0.0000       9.247175       251.6284 
 205   0.0000       9.319704       253.6020 
 206   0.0000       9.319704       253.6020 
 207   0.0000       9.323455       253.7041 
 208   0.0000      12.944769       352.2451 
 209   0.0000      12.944769       352.2451 
 210   0.0000      12.971518       352.9730 
 211   0.0000      12.971754       352.9794 
 212   0.0000      13.060465       355.3933 
 213   0.0000      13.060465       355.3933 
 214   0.0000      13.119389       356.9967 
 215   0.0000      17.695920       481.5305 
 216   0.0000      17.696052       481.5341 
 217   0.0000      17.779949       483.8170 
 218   0.0000      17.779949       483.8170 
 219   0.0000      17.853190       485.8100 
 220   0.0000      37.820779      1029.1557 
 221   0.0000      65.898134      1793.1794 
 222   0.0000      65.898134      1793.1794 
 223   0.0000      65.948944      1794.5620 
 224   0.0000      65.948944      1794.5620 
 225   0.0000      65.995283      1795.8230 

                    ********************************
                    * MULLIKEN POPULATION ANALYSIS *
                    ********************************

--------------------------------------------
MULLIKEN ATOMIC CHARGES AND SPIN POPULATIONS
--------------------------------------------
   0 Na:    0.670369   -0.000000
   1 Cl:   -0.670369    0.000000
Sum of atomic charges         :   -0.0000000
Sum of atomic spin populations:    0.0000000

-----------------------------------------------------
MULLIKEN REDUCED ORBITAL CHARGES AND SPIN POPULATIONS
-----------------------------------------------------
CHARGE
  0 Nas       :     4.130396  s :     4.130396
      pz      :     2.072224  p :     6.129826
      px      :     2.028801
      py      :     2.028801
      dz2     :     0.029231  d :     0.059054
      dxz     :     0.014911
      dyz     :     0.014911
      dx2y2   :     0.000000
      dxy     :     0.000000
      f0      :     0.004923  f :     0.009008
      f+1     :     0.002043
      f-1     :     0.002043
      f+2     :     0.000000
      f-2     :     0.000000
      f+3     :     0.000000
      f-3     :     0.000000
      g0      :     0.000822  g :     0.001347
      g+1     :     0.000262
      g-1     :     0.000262
      g+2     :     0.000000
      g-2     :     0.000000
      g+3     :     0.000000
      g-3     :     0.000000
      g+4     :     0.000000
      g-4     :     0.000000
  1 Cls       :     5.962799  s :     5.962799
      pz      :     3.794608  p :    11.706385
      px      :     3.955888
      py      :     3.955888
      dz2     :     0.006700  d :     0.008794
      dxz     :     0.001047
      dyz     :     0.001047
      dx2y2   :     0.000000
      dxy     :    -0.000000
      f0      :    -0.000037  f :    -0.002864
      f+1     :    -0.001414
      f-1     :    -0.001414
      f+2     :     0.000000
      f-2     :     0.000000
      f+3     :     0.000000
      f-3     :     0.000000
      g0      :    -0.001107  g :    -0.003248
      g+1     :    -0.001071
      g-1     :    -0.001071
      g+2     :     0.000000
      g-2     :     0.000000
      g+3     :     0.000000
      g-3     :     0.000000
      g+4     :     0.000000
      g-4     :     0.000000
      h0      :    -0.000559  h :    -0.001495
      h+1     :    -0.000468
      h-1     :    -0.000468
      h+2     :    -0.000000
      h-2     :    -0.000000
      h+3     :     0.000000
      h-3     :     0.000000
      h+4     :     0.000000
      h-4     :     0.000000
      h+5     :     0.000000
      h-5     :     0.000000

SPIN
  0 Nas       :    -0.000000  s :    -0.000000
      pz      :    -0.000000  p :    -0.000000
      px      :    -0.000000
      py      :    -0.000000
      dz2     :    -0.000000  d :    -0.000000
      dxz     :    -0.000000
      dyz     :    -0.000000
      dx2y2   :    -0.000000
      dxy     :    -0.000000
      f0      :    -0.000000  f :    -0.000000
      f+1     :    -0.000000
      f-1     :     0.000000
      f+2     :     0.000000
      f-2     :     0.000000
      f+3     :    -0.000000
      f-3     :     0.000000
      g0      :    -0.000000  g :     0.000000
      g+1     :     0.000000
      g-1     :     0.000000
      g+2     :    -0.000000
      g-2     :    -0.000000
      g+3     :    -0.000000
      g-3     :     0.000000
      g+4     :     0.000000
      g-4     :     0.000000
  1 Cls       :     0.000000  s :     0.000000
      pz      :     0.000000  p :     0.000000
      px      :     0.000000
      py      :     0.000000
      dz2     :     0.000000  d :     0.000000
      dxz     :     0.000000
      dyz     :     0.000000
      dx2y2   :     0.000000
      dxy     :    -0.000000
      f0      :    -0.000000  f :     0.000000
      f+1     :     0.000000
      f-1     :     0.000000
      f+2     :    -0.000000
      f-2     :    -0.000000
      f+3     :    -0.000000
      f-3     :    -0.000000
      g0      :     0.000000  g :     0.000000
      g+1     :     0.000000
      g-1     :     0.000000
      g+2     :     0.000000
      g-2     :     0.000000
      g+3     :     0.000000
      g-3     :     0.000000
      g+4     :     0.000000
      g-4     :     0.000000
      h0      :     0.000000  h :     0.000000
      h+1     :     0.000000
      h-1     :     0.000000
      h+2     :    -0.000000
      h-2     :    -0.000000
      h+3     :     0.000000
      h-3     :    -0.000000
      h+4     :    -0.000000
      h-4     :     0.000000
      h+5     :    -0.000000
      h-5     :     0.000000


                     *******************************
                     * LOEWDIN POPULATION ANALYSIS *
                     *******************************

-------------------------------------------
LOEWDIN ATOMIC CHARGES AND SPIN POPULATIONS
-------------------------------------------
   0 Na:    0.654946   -0.000000
   1 Cl:   -0.654946    0.000000

----------------------------------------------------
LOEWDIN REDUCED ORBITAL CHARGES AND SPIN POPULATIONS
----------------------------------------------------
CHARGE
  0 Nas       :     3.792763  s :     3.792763
      pz      :     2.148129  p :     6.146975
      px      :     1.999423
      py      :     1.999423
      dz2     :     0.119929  d :     0.228602
      dxz     :     0.054336
      dyz     :     0.054336
      dx2y2   :     0.000000
      dxy     :     0.000000
      f0      :     0.057672  f :     0.116446
      f+1     :     0.029387
      f-1     :     0.029387
      f+2     :     0.000000
      f-2     :     0.000000
      f+3     :     0.000000
      f-3     :     0.000000
      g0      :     0.025351  g :     0.060268
      g+1     :     0.017459
      g-1     :     0.017459
      g+2     :     0.000000
      g-2     :     0.000000
      g+3     :     0.000000
      g-3     :     0.000000
      g+4     :     0.000000
      g-4     :     0.000000
  1 Cls       :     5.722609  s :     5.722609
      pz      :     3.790306  p :    11.480219
      px      :     3.844957
      py      :     3.844957
      dz2     :     0.086073  d :     0.094502
      dxz     :     0.004214
      dyz     :     0.004214
      dx2y2   :     0.000000
      dxy     :     0.000000
      f0      :     0.092242  f :     0.109236
      f+1     :     0.008497
      f-1     :     0.008497
      f+2     :     0.000000
      f-2     :     0.000000
      f+3     :     0.000000
      f-3     :     0.000000
      g0      :     0.090390  g :     0.123805
      g+1     :     0.016707
      g-1     :     0.016707
      g+2     :     0.000000
      g-2     :     0.000000
      g+3     :     0.000000
      g-3     :     0.000000
      g+4     :     0.000000
      g-4     :     0.000000
      h0      :     0.074537  h :     0.124576
      h+1     :     0.025020
      h-1     :     0.025020
      h+2     :     0.000000
      h-2     :     0.000000
      h+3     :     0.000000
      h-3     :     0.000000
      h+4     :     0.000000
      h-4     :     0.000000
      h+5     :     0.000000
      h-5     :     0.000000

SPIN
  0 Nas       :    -0.000000  s :    -0.000000
      pz      :     0.000000  p :     0.000000
      px      :    -0.000000
      py      :    -0.000000
      dz2     :    -0.000000  d :    -0.000000
      dxz     :     0.000000
      dyz     :     0.000000
      dx2y2   :     0.000000
      dxy     :    -0.000000
      f0      :     0.000000  f :     0.000000
      f+1     :     0.000000
      f-1     :    -0.000000
      f+2     :     0.000000
      f-2     :    -0.000000
      f+3     :    -0.000000
      f-3     :    -0.000000
      g0      :     0.000000  g :     0.000000
      g+1     :     0.000000
      g-1     :     0.000000
      g+2     :    -0.000000
      g-2     :    -0.000000
      g+3     :    -0.000000
      g-3     :     0.000000
      g+4     :    -0.000000
      g-4     :     0.000000
  1 Cls       :    -0.000000  s :    -0.000000
      pz      :     0.000000  p :     0.000000
      px      :    -0.000000
      py      :     0.000000
      dz2     :     0.000000  d :     0.000000
      dxz     :     0.000000
      dyz     :    -0.000000
      dx2y2   :     0.000000
      dxy     :    -0.000000
      f0      :     0.000000  f :     0.000000
      f+1     :     0.000000
      f-1     :     0.000000
      f+2     :    -0.000000
      f-2     :    -0.000000
      f+3     :    -0.000000
      f-3     :    -0.000000
      g0      :     0.000000  g :     0.000000
      g+1     :    -0.000000
      g-1     :     0.000000
      g+2     :    -0.000000
      g-2     :     0.000000
      g+3     :     0.000000
      g-3     :     0.000000
      g+4     :     0.000000
      g-4     :     0.000000
      h0      :    -0.000000  h :    -0.000000
      h+1     :    -0.000000
      h-1     :     0.000000
      h+2     :     0.000000
      h-2     :    -0.000000
      h+3     :     0.000000
      h-3     :    -0.000000
      h+4     :    -0.000000
      h-4     :    -0.000000
      h+5     :    -0.000000
      h-5     :     0.000000


                      *****************************
                      * MAYER POPULATION ANALYSIS *
                      *****************************

  NA   - Mulliken gross atomic population
  ZA   - Total nuclear charge
  QA   - Mulliken gross atomic charge
  VA   - Mayer's total valence
  BVA  - Mayer's bonded valence
  FA   - Mayer's free valence

  ATOM       NA         ZA         QA         VA         BVA        FA
  0 Na    10.3296    11.0000     0.6704     0.6108     0.6108    -0.0000
  1 Cl    17.6704    17.0000    -0.6704     0.6108     0.6108    -0.0000

  Mayer bond orders larger than 0.1
B(  0-Na,  1-Cl) :   0.6108 

-------
TIMINGS
-------

Total SCF time: 0 days 0 hours 4 min 3 sec 

Total time                  ....     243.950 sec
Sum of individual times     ....     243.351 sec  ( 99.8%)

Fock matrix formation       ....     241.918 sec  ( 99.2%)
  XC integration            ....       7.985 sec  (  3.3% of F)
    Basis function eval.    ....       0.606 sec  (  7.6% of XC)
    Density eval.           ....       1.077 sec  ( 13.5% of XC)
    XC-Functional eval.     ....       0.126 sec  (  1.6% of XC)
    XC-Potential eval.      ....       3.051 sec  ( 38.2% of XC)
Diagonalization             ....       0.449 sec  (  0.2%)
Density matrix formation    ....       0.010 sec  (  0.0%)
Population analysis         ....       0.102 sec  (  0.0%)
Initial guess               ....       0.282 sec  (  0.1%)
Orbital Transformation      ....       0.000 sec  (  0.0%)
Orbital Orthonormalization  ....       0.000 sec  (  0.0%)
DIIS solution               ....       0.314 sec  (  0.1%)
Grid generation             ....       0.276 sec  (  0.1%)

-------------------------   --------------------
FINAL SINGLE POINT ENERGY      -622.297180193095
-------------------------   --------------------


                            ***************************************
                            *     ORCA property calculations      *
                            ***************************************

                                    ---------------------
                                    Active property flags
                                    ---------------------
   (+) Dipole Moment


------------------------------------------------------------------------------
                       ORCA ELECTRIC PROPERTIES CALCULATION
------------------------------------------------------------------------------

Dipole Moment Calculation                       ... on
Quadrupole Moment Calculation                   ... off
Polarizability Calculation                      ... off
GBWName                                         ... nacl_pbe_00.gbw
Electron density file                           ... nacl_pbe_00.scfp.tmp
The origin for moment calculation is the CENTER OF MASS  = ( 0.000000,  0.000000  2.706316)

-------------
DIPOLE MOMENT
-------------
                                X             Y             Z
Electronic contribution:     -0.00000      -0.00000      -3.40493
Nuclear contribution   :      0.00000       0.00000       0.06466
                        -----------------------------------------
Total Dipole Moment    :     -0.00000      -0.00000      -3.34028
                        -----------------------------------------
Magnitude (a.u.)       :      3.34028
Magnitude (Debye)      :      8.49031



--------------------
Rotational spectrum 
--------------------
 
Rotational constants in cm-1:     0.000000     0.216880     0.216880 
Rotational constants in MHz :     0.000000  6501.891981  6501.891981 

 Dipole components along the rotational axes: 
x,y,z [a.u.] :    -3.340276    -0.000000    -0.000000 
x,y,z [Debye]:    -8.490306    -0.000000    -0.000000 

 

Timings for individual modules:

Sum of individual times         ...      245.733 sec (=   4.096 min)
GTO integral calculation        ...        1.382 sec (=   0.023 min)   0.6 %
SCF iterations                  ...      244.351 sec (=   4.073 min)  99.4 %
                             ****ORCA TERMINATED NORMALLY****
TOTAL RUN TIME: 0 days 0 hours 4 minutes 6 seconds 472 msec
