
                                 *****************
                                 * O   R   C   A *
                                 *****************

           --- An Ab Initio, DFT and Semiempirical electronic structure package ---

                  #######################################################
                  #                        -***-                        #
                  #          Department of theory and spectroscopy      #
                  #               Directorship: Frank Neese             #
                  #        Max Planck Institute fuer Kohlenforschung    #
                  #                Kaiser Wilhelm Platz 1               #
                  #                 D-45470 Muelheim/Ruhr               #
                  #                      Germany                        #
                  #                                                     #
                  #                  All rights reserved                #
                  #                        -***-                        #
                  #######################################################


                         Program Version 4.1.2  - RELEASE  -


 With contributions from (in alphabetic order):
   Daniel Aravena         : Magnetic Properties
   Michael Atanasov       : Ab Initio Ligand Field Theory
   Alexander A. Auer      : GIAO ZORA
   Ute Becker             : Parallelization
   Giovanni Bistoni       : ED, Open-shell LED
   Martin Brehm           : Molecular dynamics
   Dmytro Bykov           : SCF Hessian
   Vijay G. Chilkuri      : MRCI spin determinant printing
   Dipayan Datta          : RHF DLPNO-CCSD density
   Achintya Kumar Dutta   : EOM-CC, STEOM-CC
   Dmitry Ganyushin       : Spin-Orbit,Spin-Spin,Magnetic field MRCI
   Miquel Garcia          : C-PCM Hessian
   Yang Guo               : DLPNO-NEVPT2, CIM, IAO-localization
   Andreas Hansen         : Spin unrestricted coupled pair/coupled cluster methods
   Benjamin Helmich-Paris : CASSCF linear response (MC-RPA)
   Lee Huntington         : MR-EOM, pCC
   Robert Izsak           : Overlap fitted RIJCOSX, COSX-SCS-MP3, EOM
   Christian Kollmar      : KDIIS, OOCD, Brueckner-CCSD(T), CCSD density
   Simone Kossmann        : Meta GGA functionals, TD-DFT gradient, OOMP2, MP2 Hessian
   Martin Krupicka        : AUTO-CI
   Lucas Lang             : DCDCAS
   Dagmar Lenk            : GEPOL surface, SMD
   Dimitrios Liakos       : Extrapolation schemes; parallel MDCI
   Dimitrios Manganas     : ROCIS; embedding schemes
   Dimitrios Pantazis     : SARC Basis sets
   Taras Petrenko         : DFT Hessian,TD-DFT gradient, ASA, ECA, R-Raman, ABS, FL, XAS/XES, NRVS
   Peter Pinski           : DLPNO-MP2, DLPNO-MP2 Gradient
   Christoph Reimann      : Effective Core Potentials
   Marius Retegan         : Local ZFS, SOC
   Christoph Riplinger    : Optimizer, TS searches, QM/MM, DLPNO-CCSD(T), (RO)-DLPNO pert. Triples
   Tobias Risthaus        : Range-separated hybrids, TD-DFT gradient, RPA, STAB
   Michael Roemelt        : Restricted open shell CIS
   Masaaki Saitow         : Open-shell DLPNO
   Barbara Sandhoefer     : DKH picture change effects
   Avijit Sen             : IP-ROCIS
   Kantharuban Sivalingam : CASSCF convergence, NEVPT2, FIC-MRCI
   Bernardo de Souza      : ESD, SOC TD-DFT
   Georgi Stoychev        : AutoAux, RI-MP2 NMR
   Willem Van den Heuvel  : Paramagnetic NMR
   Boris Wezisla          : Elementary symmetry handling
   Frank Wennmohs         : Technical directorship


 We gratefully acknowledge several colleagues who have allowed us to
 interface, adapt or use parts of their codes:
   Stefan Grimme, W. Hujo, H. Kruse,             : VdW corrections, initial TS optimization,
                  C. Bannwarth                     DFT functionals, gCP, sTDA/sTD-DF
   Ed Valeev                                     : LibInt (2-el integral package), F12 methods
   Garnet Chan, S. Sharma, J. Yang, R. Olivares  : DMRG
   Ulf Ekstrom                                   : XCFun DFT Library
   Mihaly Kallay                                 : mrcc  (arbitrary order and MRCC methods)
   Andreas Klamt, Michael Diedenhofen            : otool_cosmo (COSMO solvation model)
   Jiri Pittner, Ondrej Demel                    : Mk-CCSD
   Frank Weinhold                                : gennbo (NPA and NBO analysis)
   Christopher J. Cramer and Donald G. Truhlar   : smd solvation model
   Lars Goerigk                                  : TD-DFT with DH, B97 family of functionals
   V. Asgeirsson, H. Jonsson                     : NEB implementation
   FAccTs GmbH                                   : IRC, NEB, NEB-TS, Multilevel


 Your calculation uses the libint2 library for the computation of 2-el integrals
 For citations please refer to: http://libint.valeyev.net

 This ORCA versions uses:
   CBLAS   interface :  Fast vector & matrix operations
   LAPACKE interface :  Fast linear algebra routines
   SCALAPACK package :  Parallel linear algebra routines


----- Orbital basis set information -----
Your calculation utilizes the basis: aug-pc-4
   H, C-F              : F. Jensen, J. Chem. Phys. 115, 9113 (2001).
                         F. Jensen, J. Chem. Phys. 116, 7372 (2002).
                         F. Jensen, J. Chem. Phys. 117, 9234 (2002).
   Si-Cl               : F. Jensen, T. Helgaker, J. Chem. Phys. 121, 3463 (2004).
   He-B, Ne-Mg, Al, Ar : F. Jensen, J. Phys. Chem. A 111, 11198 (2007).
   K, Ca, Ga-Kr        : F. Jensen, J. Chem. Phys. 136, 094110 (2012).
   Sc-Zn               : F. Jensen, J. Chem. Phys. 138, 014107 (2013).

================================================================================
                                        WARNINGS
                       Please study these warnings very carefully!
================================================================================


INFO   : the flag for use of LIBINT has been found!

================================================================================
                                       INPUT FILE
================================================================================
NAME = nacl_pbe_+0001_x.inp
|  1> !uks pbe nori aug-pc-4 grid5 nofinalgrid verytightscf
|  2> 
|  3> %maxcore 6000
|  4> 
|  5> %pal nprocs 4 end
|  6> 
|  7> %scf
|  8> 	efield 0.001, 0.0, 0.0
|  9> 	maxiter 200
| 10> end
| 11> 
| 12> * xyz 0 1
| 13> Na 0.0000 0.0000 0.0000
| 14> Cl 0.0000 0.0000 2.3608
| 15> *
| 16> 
| 17>                          ****END OF INPUT****
================================================================================

                       ****************************
                       * Single Point Calculation *
                       ****************************

---------------------------------
CARTESIAN COORDINATES (ANGSTROEM)
---------------------------------
  Na     0.000000    0.000000    0.000000
  Cl     0.000000    0.000000    2.360800

----------------------------
CARTESIAN COORDINATES (A.U.)
----------------------------
  NO LB      ZA    FRAG     MASS         X           Y           Z
   0 Na   11.0000    0    22.990    0.000000    0.000000    0.000000
   1 Cl   17.0000    0    35.453    0.000000    0.000000    4.461265

--------------------------------
INTERNAL COORDINATES (ANGSTROEM)
--------------------------------
 Na     0   0   0     0.000000000000     0.00000000     0.00000000
 Cl     1   0   0     2.360800000000     0.00000000     0.00000000

---------------------------
INTERNAL COORDINATES (A.U.)
---------------------------
 Na     0   0   0     0.000000000000     0.00000000     0.00000000
 Cl     1   0   0     4.461265456961     0.00000000     0.00000000

---------------------
BASIS SET INFORMATION
---------------------
There are 2 groups of distinct atoms

 Group   1 Type Na  : 44s16p4d3f2g contracted to 8s6p4d3f2g pattern {15111311111/1111111/1111/111/11}
 Group   2 Type Cl  : 44s27p7d4f3g2h contracted to 8s7p7d4f3g2h pattern {15121211111/111111111/1111111/1111/111/11}

Atom   0Na   basis set group =>   1
Atom   1Cl   basis set group =>   2


           ************************************************************
           *        Program running with 4 parallel MPI-processes     *
           *              working on a common directory               *
           ************************************************************
------------------------------------------------------------------------------
                           ORCA GTO INTEGRAL CALCULATION
------------------------------------------------------------------------------

                         BASIS SET STATISTICS AND STARTUP INFO

 # of primitive gaussian shells          ...  156
 # of primitive gaussian functions       ...  388
 # of contracted shells                  ...   54
 # of contracted basis functions         ...  226
 Highest angular momentum                ...    5
 Maximum contraction depth               ...   15
 Integral package used                   ... LIBINT
 Integral threshhold            Thresh   ...  1.000e-12
 Primitive cut-off              TCut     ...  1.000e-14


------------------------------ INTEGRAL EVALUATION ----------------------------


 * One electron integrals 
 Pre-screening matrix                    ... done
 Shell pair data                         ... done (   0.001 sec)


An Electric Field will be added: 1.000e-03 0.000e+00 0.000e+00 au

  ... done adding electric field perturbation



           ************************************************************
           *        Program running with 4 parallel MPI-processes     *
           *              working on a common directory               *
           ************************************************************
-------------------------------------------------------------------------------
                                 ORCA SCF
-------------------------------------------------------------------------------

------------
SCF SETTINGS
------------
Hamiltonian:
 Density Functional     Method          .... DFT(GTOs)
 Exchange Functional    Exchange        .... PBE
   PBE kappa parameter   XKappa         ....  0.804000
   PBE mue parameter    XMuePBE         ....  0.219520
 Correlation Functional Correlation     .... PBE
   PBE beta parameter  CBetaPBE         ....  0.066725
 LDA part of GGA corr.  LDAOpt          .... PW91-LDA
 Gradients option       PostSCFGGA      .... off
   Density functional embedding theory  .... OFF
   NL short-range parameter             ....  6.400000


General Settings:
 Integral files         IntName         .... nacl_pbe_+0001_x
 Hartree-Fock type      HFTyp           .... UHF
 Total Charge           Charge          ....    0
 Multiplicity           Mult            ....    1
 Number of Electrons    NEL             ....   28
 Basis Dimension        Dim             ....  226
 Nuclear Repulsion      ENuc            ....     41.9163579939 Eh

Convergence Acceleration:
 DIIS                   CNVDIIS         .... on
   Start iteration      DIISMaxIt       ....    12
   Startup error        DIISStart       ....  0.200000
   # of expansion vecs  DIISMaxEq       ....     5
   Bias factor          DIISBfac        ....   1.050
   Max. coefficient     DIISMaxC        ....  10.000
 Newton-Raphson         CNVNR           .... off
 SOSCF                  CNVSOSCF        .... off
 Level Shifting         CNVShift        .... on
   Level shift para.    LevelShift      ....    0.2500
   Turn off err/grad.   ShiftErr        ....    0.0010
 Zerner damping         CNVZerner       .... off
 Static damping         CNVDamp         .... on
   Fraction old density DampFac         ....    0.7000
   Max. Damping (<1)    DampMax         ....    0.9800
   Min. Damping (>=0)   DampMin         ....    0.0000
   Turn off err/grad.   DampErr         ....    0.1000
 Fernandez-Rico         CNVRico         .... off

SCF Procedure:
 Maximum # iterations   MaxIter         ....   200
 SCF integral mode      SCFMode         .... Direct
   Integral package                     .... LIBINT
 Reset frequency        DirectResetFreq ....    20
 Integral Threshold     Thresh          ....  1.000e-12 Eh
 Primitive CutOff       TCut            ....  1.000e-14 Eh

Convergence Tolerance:
 Convergence Check Mode ConvCheckMode   .... Total+1el-Energy
 Convergence forced     ConvForced      .... 0
 Energy Change          TolE            ....  1.000e-09 Eh
 1-El. energy change                    ....  1.000e-06 Eh
 DIIS Error             TolErr          ....  1.000e-08


Diagonalization of the overlap matrix:
Smallest eigenvalue                        ... 4.489e-05
Time for diagonalization                   ...    0.008 sec
Threshold for overlap eigenvalues          ... 1.000e-08
Number of eigenvalues below threshold      ... 0
Time for construction of square roots      ...    0.007 sec
Total time needed                          ...    0.016 sec

-------------------
DFT GRID GENERATION
-------------------

General Integration Accuracy     IntAcc      ...  5.010
Radial Grid Type                 RadialGrid  ... Gauss-Chebyshev
Angular Grid (max. acc.)         AngularGrid ... Lebedev-434
Angular grid pruning method      GridPruning ... 3 (G Style)
Weight generation scheme         WeightScheme... Becke
Basis function cutoff            BFCut       ...    1.0000e-12
Integration weight cutoff        WCut        ...    1.0000e-14
Grids for H and He will be reduced by one unit

# of grid points (after initial pruning)     ...  23144 (   0.0 sec)
# of grid points (after weights+screening)   ...  23087 (   0.0 sec)
nearest neighbour list constructed           ...    0.0 sec
Grid point re-assignment to atoms done       ...    0.0 sec
Grid point division into batches done        ...    0.2 sec
Reduced shell lists constructed in    0.2 sec

Total number of grid points                  ...    23087
Total number of batches                      ...      362
Average number of points per batch           ...       63
Average number of grid points per atom       ...    11544
Average number of shells per batch           ...    31.72 (58.74%)
Average number of basis functions per batch  ...   129.02 (57.09%)
Average number of large shells per batch     ...    27.12 (85.50%)
Average number of large basis fcns per batch ...   110.40 (85.57%)
Maximum spatial batch extension              ...  26.20, 26.20, 24.33 au
Average spatial batch extension              ...   2.07,  2.02,  1.79 au

Time for grid setup =    0.273 sec

------------------------------
INITIAL GUESS: MODEL POTENTIAL
------------------------------
Loading Hartree-Fock densities                     ... done
Calculating cut-offs                               ... done
Setting up the integral package                    ... done
Initializing the effective Hamiltonian             ... done
Starting the Coulomb interaction                   ... done (   0.0 sec)
Reading the grid                                   ... done
Mapping shells                                     ... done
Starting the XC term evaluation                    ... done (   0.2 sec)
  promolecular density results
     # of electrons  =     27.999986799
     EX              =    -41.306034510
     EC              =     -1.033162326
     EX+EC           =    -42.339196836
Transforming the Hamiltonian                       ... done (   0.0 sec)
Diagonalizing the Hamiltonian                      ... done (   0.0 sec)
Back transforming the eigenvectors                 ... done (   0.0 sec)
Now organizing SCF variables                       ... done
                      ------------------
                      INITIAL GUESS DONE (   0.6 sec)
                      ------------------
--------------
SCF ITERATIONS
--------------
ITER       Energy         Delta-E        Max-DP      RMS-DP      [F,P]     Damp
               ***  Starting incremental Fock matrix formation  ***
  0   -622.2404962446   0.000000000000 0.04152868  0.00045170  0.1449105 0.7000
  1   -622.2679988233  -0.027502578681 0.02029274  0.00029762  0.0736606 0.7000
                               ***Turning on DIIS***
  2   -622.2790028668  -0.011004043476 0.03036564  0.00046405  0.0245916 0.0000
  3   -622.2886865641  -0.009683697301 0.02144162  0.00021298  0.0589903 0.0000
  4   -622.2960578522  -0.007371288077 0.00359071  0.00006876  0.0203135 0.0000
  5   -622.2969634728  -0.000905620609 0.00142845  0.00002907  0.0083109 0.0000
  6   -622.2971425426  -0.000179069861 0.00086800  0.00001454  0.0035845 0.0000
  7   -622.2971803821  -0.000037839409 0.00064887  0.00000921  0.0018738 0.0000
  8   -622.2971910002  -0.000010618180 0.00038627  0.00000488  0.0011128 0.0000
  9   -622.2971944804  -0.000003480204 0.00047457  0.00000661  0.0006925 0.0000
 10   -622.2971965448  -0.000002064392 0.00006999  0.00000093  0.0001362 0.0000
 11   -622.2971965691  -0.000000024227 0.00001491  0.00000022  0.0000848 0.0000
 12   -622.2971965780  -0.000000008954 0.00002414  0.00000022  0.0000054 0.0000
 13   -622.2971965781  -0.000000000043 0.00001054  0.00000009  0.0000034 0.0000
 14   -622.2971965781  -0.000000000015 0.00000157  0.00000001  0.0000006 0.0000
 15   -622.2971965781   0.000000000002 0.00000055  0.00000001  0.0000001 0.0000
 16   -622.2971965781  -0.000000000005 0.00000115  0.00000001  0.0000000 0.0000
                 **** Energy Check signals convergence ****

               *****************************************************
               *                     SUCCESS                       *
               *           SCF CONVERGED AFTER  17 CYCLES          *
               *****************************************************


----------------
TOTAL SCF ENERGY
----------------

Total Energy       :         -622.29719658 Eh          -16933.56760 eV

Components:
Nuclear Repulsion  :           41.91635799 Eh            1140.60209 eV
Electronic Energy  :         -664.21355457 Eh          -18074.16969 eV
One Electron Energy:         -948.97199449 Eh          -25822.84078 eV
Two Electron Energy:          284.75843992 Eh            7748.67109 eV

Virial components:
Potential Energy   :        -1244.05745438 Eh          -33852.52436 eV
Kinetic Energy     :          621.76025780 Eh           16918.95676 eV
Virial Ratio       :            2.00086358


DFT components:
N(Alpha)           :       13.999994721371 electrons
N(Beta)            :       13.999994721371 electrons
N(Total)           :       27.999989442742 electrons
E(X)               :      -41.407333588709 Eh       
E(C)               :       -1.045650177679 Eh       
E(XC)              :      -42.452983766387 Eh       
DFET-embed. en.    :        0.000000000000 Eh       

---------------
SCF CONVERGENCE
---------------

  Last Energy change         ...    4.7748e-12  Tolerance :   1.0000e-09
  Last MAX-Density change    ...    1.0469e-06  Tolerance :   1.0000e-08
  Last RMS-Density change    ...    1.0293e-08  Tolerance :   1.0000e-09
  Last DIIS Error            ...    4.8554e-09  Tolerance :   1.0000e-08

             **** THE GBW FILE WAS UPDATED (nacl_pbe_+0001_x.gbw) ****
             **** DENSITY FILE WAS UPDATED (nacl_pbe_+0001_x.scfp.tmp) ****
             **** ENERGY FILE WAS UPDATED (nacl_pbe_+0001_x.en.tmp) ****
----------------------
UHF SPIN CONTAMINATION
----------------------

Warning: in a DFT calculation there is little theoretical justification to 
         calculate <S**2> as in Hartree-Fock theory. We will do it anyways
         but you should keep in mind that the values have only limited relevance

Expectation value of <S**2>     :    -0.000000
Ideal value S*(S+1) for S=0.0   :     0.000000
Deviation                       :    -0.000000

----------------
ORBITAL ENERGIES
----------------
                 SPIN UP ORBITALS
  NO   OCC          E(Eh)            E(eV) 
   0   1.0000    -100.534687     -2735.6879 
   1   1.0000     -37.929785     -1032.1219 
   2   1.0000      -9.059333      -246.5170 
   3   1.0000      -6.876174      -187.1102 
   4   1.0000      -6.874722      -187.0707 
   5   1.0000      -6.874721      -187.0707 
   6   1.0000      -2.098594       -57.1057 
   7   1.0000      -1.074862       -29.2485 
   8   1.0000      -1.074862       -29.2485 
   9   1.0000      -1.072825       -29.1931 
  10   1.0000      -0.620323       -16.8798 
  11   1.0000      -0.211891        -5.7659 
  12   1.0000      -0.194516        -5.2930 
  13   1.0000      -0.194513        -5.2930 
  14   0.0000      -0.082453        -2.2437 
  15   0.0000      -0.011729        -0.3192 
  16   0.0000      -0.010550        -0.2871 
  17   0.0000      -0.001915        -0.0521 
  18   0.0000       0.003710         0.1009 
  19   0.0000       0.017304         0.4709 
  20   0.0000       0.018101         0.4926 
  21   0.0000       0.027028         0.7355 
  22   0.0000       0.027324         0.7435 
  23   0.0000       0.036935         1.0051 
  24   0.0000       0.037005         1.0070 
  25   0.0000       0.041341         1.1249 
  26   0.0000       0.041407         1.1267 
  27   0.0000       0.044312         1.2058 
  28   0.0000       0.067962         1.8493 
  29   0.0000       0.068522         1.8646 
  30   0.0000       0.072668         1.9774 
  31   0.0000       0.075733         2.0608 
  32   0.0000       0.076158         2.0724 
  33   0.0000       0.080822         2.1993 
  34   0.0000       0.082169         2.2359 
  35   0.0000       0.082175         2.2361 
  36   0.0000       0.084402         2.2967 
  37   0.0000       0.084402         2.2967 
  38   0.0000       0.096009         2.6125 
  39   0.0000       0.109324         2.9749 
  40   0.0000       0.109487         2.9793 
  41   0.0000       0.114167         3.1066 
  42   0.0000       0.132638         3.6093 
  43   0.0000       0.132638         3.6093 
  44   0.0000       0.134679         3.6648 
  45   0.0000       0.134712         3.6657 
  46   0.0000       0.137268         3.7353 
  47   0.0000       0.137268         3.7353 
  48   0.0000       0.138850         3.7783 
  49   0.0000       0.138850         3.7783 
  50   0.0000       0.140173         3.8143 
  51   0.0000       0.163714         4.4549 
  52   0.0000       0.176099         4.7919 
  53   0.0000       0.176100         4.7919 
  54   0.0000       0.190614         5.1869 
  55   0.0000       0.190755         5.1907 
  56   0.0000       0.203053         5.5253 
  57   0.0000       0.203165         5.5284 
  58   0.0000       0.219390         5.9699 
  59   0.0000       0.226631         6.1669 
  60   0.0000       0.229156         6.2356 
  61   0.0000       0.229326         6.2403 
  62   0.0000       0.271977         7.4009 
  63   0.0000       0.295470         8.0401 
  64   0.0000       0.295470         8.0401 
  65   0.0000       0.296623         8.0715 
  66   0.0000       0.373848        10.1729 
  67   0.0000       0.373853        10.1730 
  68   0.0000       0.374592        10.1932 
  69   0.0000       0.374592        10.1932 
  70   0.0000       0.403782        10.9875 
  71   0.0000       0.410852        11.1799 
  72   0.0000       0.410859        11.1800 
  73   0.0000       0.411787        11.2053 
  74   0.0000       0.411796        11.2055 
  75   0.0000       0.424399        11.5485 
  76   0.0000       0.426704        11.6112 
  77   0.0000       0.426704        11.6112 
  78   0.0000       0.527253        14.3473 
  79   0.0000       0.527271        14.3478 
  80   0.0000       0.536406        14.5964 
  81   0.0000       0.536406        14.5964 
  82   0.0000       0.539071        14.6689 
  83   0.0000       0.569202        15.4888 
  84   0.0000       0.569202        15.4888 
  85   0.0000       0.579414        15.7667 
  86   0.0000       0.579425        15.7670 
  87   0.0000       0.588231        16.0066 
  88   0.0000       0.611509        16.6400 
  89   0.0000       0.611509        16.6400 
  90   0.0000       0.615373        16.7452 
  91   0.0000       0.615418        16.7464 
  92   0.0000       0.619008        16.8441 
  93   0.0000       0.698191        18.9987 
  94   0.0000       0.761861        20.7313 
  95   0.0000       0.761861        20.7313 
  96   0.0000       0.787336        21.4245 
  97   0.0000       0.787342        21.4247 
  98   0.0000       0.811694        22.0873 
  99   0.0000       0.811694        22.0873 
 100   0.0000       0.821362        22.3504 
 101   0.0000       0.821362        22.3504 
 102   0.0000       0.834916        22.7192 
 103   0.0000       0.851091        23.1594 
 104   0.0000       0.851091        23.1594 
 105   0.0000       0.876267        23.8444 
 106   0.0000       0.876276        23.8447 
 107   0.0000       0.934910        25.4402 
 108   0.0000       0.934912        25.4403 
 109   0.0000       0.964230        26.2380 
 110   0.0000       1.005976        27.3740 
 111   0.0000       1.005976        27.3740 
 112   0.0000       1.016756        27.6673 
 113   0.0000       1.016762        27.6675 
 114   0.0000       1.037749        28.2386 
 115   0.0000       1.083662        29.4880 
 116   0.0000       1.083672        29.4882 
 117   0.0000       1.118202        30.4278 
 118   0.0000       1.118203        30.4279 
 119   0.0000       1.175016        31.9738 
 120   0.0000       1.317234        35.8438 
 121   0.0000       1.317234        35.8438 
 122   0.0000       1.346209        36.6322 
 123   0.0000       1.346209        36.6322 
 124   0.0000       1.365752        37.1640 
 125   0.0000       1.376235        37.4492 
 126   0.0000       1.376235        37.4493 
 127   0.0000       1.431387        38.9500 
 128   0.0000       1.431388        38.9500 
 129   0.0000       1.455422        39.6040 
 130   0.0000       1.477903        40.2158 
 131   0.0000       1.477906        40.2159 
 132   0.0000       1.546906        42.0935 
 133   0.0000       1.546906        42.0935 
 134   0.0000       1.563824        42.5538 
 135   0.0000       1.563825        42.5538 
 136   0.0000       1.680654        45.7329 
 137   0.0000       1.680654        45.7329 
 138   0.0000       1.693472        46.0817 
 139   0.0000       1.747955        47.5643 
 140   0.0000       1.747957        47.5643 
 141   0.0000       1.912263        52.0353 
 142   0.0000       1.912263        52.0353 
 143   0.0000       1.935941        52.6796 
 144   0.0000       1.984566        54.0028 
 145   0.0000       2.255358        61.3714 
 146   0.0000       2.255371        61.3718 
 147   0.0000       2.446356        66.5687 
 148   0.0000       2.446356        66.5687 
 149   0.0000       2.473849        67.3168 
 150   0.0000       2.938770        79.9680 
 151   0.0000       2.938839        79.9699 
 152   0.0000       2.938850        79.9702 
 153   0.0000       2.938850        79.9702 
 154   0.0000       3.030564        82.4658 
 155   0.0000       3.030568        82.4660 
 156   0.0000       3.077261        83.7365 
 157   0.0000       3.128719        85.1368 
 158   0.0000       3.128720        85.1368 
 159   0.0000       3.588746        97.6547 
 160   0.0000       3.588746        97.6547 
 161   0.0000       3.643638        99.1484 
 162   0.0000       3.643648        99.1487 
 163   0.0000       3.648129        99.2706 
 164   0.0000       3.835567       104.3711 
 165   0.0000       3.835568       104.3711 
 166   0.0000       3.844026       104.6013 
 167   0.0000       3.950490       107.4983 
 168   0.0000       3.950490       107.4983 
 169   0.0000       4.081493       111.0631 
 170   0.0000       4.089036       111.2683 
 171   0.0000       4.089037       111.2683 
 172   0.0000       4.169817       113.4665 
 173   0.0000       4.169818       113.4665 
 174   0.0000       4.293025       116.8191 
 175   0.0000       4.815329       131.0318 
 176   0.0000       4.815330       131.0318 
 177   0.0000       4.972556       135.3101 
 178   0.0000       5.550283       151.0309 
 179   0.0000       5.550287       151.0310 
 180   0.0000       5.632326       153.2634 
 181   0.0000       5.632326       153.2634 
 182   0.0000       5.634792       153.3305 
 183   0.0000       5.774916       157.1435 
 184   0.0000       5.774916       157.1435 
 185   0.0000       5.776731       157.1929 
 186   0.0000       5.776825       157.1954 
 187   0.0000       5.781201       157.3145 
 188   0.0000       5.781201       157.3145 
 189   0.0000       5.799467       157.8115 
 190   0.0000       5.799492       157.8122 
 191   0.0000       5.819946       158.3688 
 192   0.0000       5.819946       158.3688 
 193   0.0000       5.839285       158.8950 
 194   0.0000       5.839457       158.8997 
 195   0.0000       5.847187       159.1101 
 196   0.0000       5.981609       162.7679 
 197   0.0000       5.981610       162.7679 
 198   0.0000       6.382642       173.6805 
 199   0.0000       9.203740       250.4465 
 200   0.0000       9.203741       250.4465 
 201   0.0000       9.204023       250.4542 
 202   0.0000       9.204769       250.4745 
 203   0.0000       9.246956       251.6225 
 204   0.0000       9.247155       251.6279 
 205   0.0000       9.319684       253.6015 
 206   0.0000       9.319685       253.6015 
 207   0.0000       9.323435       253.7036 
 208   0.0000      12.944747       352.2445 
 209   0.0000      12.944747       352.2445 
 210   0.0000      12.971497       352.9724 
 211   0.0000      12.971733       352.9788 
 212   0.0000      13.060443       355.3927 
 213   0.0000      13.060444       355.3928 
 214   0.0000      13.119368       356.9961 
 215   0.0000      17.695899       481.5299 
 216   0.0000      17.696030       481.5335 
 217   0.0000      17.779928       483.8164 
 218   0.0000      17.779928       483.8164 
 219   0.0000      17.853168       485.8094 
 220   0.0000      37.820759      1029.1552 
 221   0.0000      65.898111      1793.1788 
 222   0.0000      65.898111      1793.1788 
 223   0.0000      65.948921      1794.5614 
 224   0.0000      65.948921      1794.5614 
 225   0.0000      65.995261      1795.8223 

                 SPIN DOWN ORBITALS
  NO   OCC          E(Eh)            E(eV) 
   0   1.0000    -100.534687     -2735.6879 
   1   1.0000     -37.929785     -1032.1219 
   2   1.0000      -9.059333      -246.5170 
   3   1.0000      -6.876174      -187.1102 
   4   1.0000      -6.874722      -187.0707 
   5   1.0000      -6.874721      -187.0707 
   6   1.0000      -2.098594       -57.1057 
   7   1.0000      -1.074862       -29.2485 
   8   1.0000      -1.074862       -29.2485 
   9   1.0000      -1.072825       -29.1931 
  10   1.0000      -0.620323       -16.8798 
  11   1.0000      -0.211891        -5.7659 
  12   1.0000      -0.194516        -5.2930 
  13   1.0000      -0.194513        -5.2930 
  14   0.0000      -0.082453        -2.2437 
  15   0.0000      -0.011729        -0.3192 
  16   0.0000      -0.010550        -0.2871 
  17   0.0000      -0.001915        -0.0521 
  18   0.0000       0.003710         0.1009 
  19   0.0000       0.017304         0.4709 
  20   0.0000       0.018101         0.4926 
  21   0.0000       0.027028         0.7355 
  22   0.0000       0.027324         0.7435 
  23   0.0000       0.036935         1.0051 
  24   0.0000       0.037005         1.0070 
  25   0.0000       0.041341         1.1249 
  26   0.0000       0.041407         1.1267 
  27   0.0000       0.044312         1.2058 
  28   0.0000       0.067962         1.8493 
  29   0.0000       0.068522         1.8646 
  30   0.0000       0.072668         1.9774 
  31   0.0000       0.075733         2.0608 
  32   0.0000       0.076158         2.0724 
  33   0.0000       0.080822         2.1993 
  34   0.0000       0.082169         2.2359 
  35   0.0000       0.082175         2.2361 
  36   0.0000       0.084402         2.2967 
  37   0.0000       0.084402         2.2967 
  38   0.0000       0.096009         2.6125 
  39   0.0000       0.109324         2.9749 
  40   0.0000       0.109487         2.9793 
  41   0.0000       0.114167         3.1066 
  42   0.0000       0.132638         3.6093 
  43   0.0000       0.132638         3.6093 
  44   0.0000       0.134679         3.6648 
  45   0.0000       0.134712         3.6657 
  46   0.0000       0.137268         3.7353 
  47   0.0000       0.137268         3.7353 
  48   0.0000       0.138850         3.7783 
  49   0.0000       0.138850         3.7783 
  50   0.0000       0.140173         3.8143 
  51   0.0000       0.163714         4.4549 
  52   0.0000       0.176099         4.7919 
  53   0.0000       0.176100         4.7919 
  54   0.0000       0.190614         5.1869 
  55   0.0000       0.190755         5.1907 
  56   0.0000       0.203053         5.5253 
  57   0.0000       0.203165         5.5284 
  58   0.0000       0.219390         5.9699 
  59   0.0000       0.226631         6.1669 
  60   0.0000       0.229156         6.2356 
  61   0.0000       0.229326         6.2403 
  62   0.0000       0.271977         7.4009 
  63   0.0000       0.295470         8.0401 
  64   0.0000       0.295470         8.0401 
  65   0.0000       0.296623         8.0715 
  66   0.0000       0.373848        10.1729 
  67   0.0000       0.373853        10.1730 
  68   0.0000       0.374592        10.1932 
  69   0.0000       0.374592        10.1932 
  70   0.0000       0.403782        10.9875 
  71   0.0000       0.410852        11.1799 
  72   0.0000       0.410859        11.1800 
  73   0.0000       0.411787        11.2053 
  74   0.0000       0.411796        11.2055 
  75   0.0000       0.424399        11.5485 
  76   0.0000       0.426704        11.6112 
  77   0.0000       0.426704        11.6112 
  78   0.0000       0.527253        14.3473 
  79   0.0000       0.527271        14.3478 
  80   0.0000       0.536406        14.5964 
  81   0.0000       0.536406        14.5964 
  82   0.0000       0.539071        14.6689 
  83   0.0000       0.569202        15.4888 
  84   0.0000       0.569202        15.4888 
  85   0.0000       0.579414        15.7667 
  86   0.0000       0.579425        15.7670 
  87   0.0000       0.588231        16.0066 
  88   0.0000       0.611509        16.6400 
  89   0.0000       0.611509        16.6400 
  90   0.0000       0.615373        16.7452 
  91   0.0000       0.615418        16.7464 
  92   0.0000       0.619008        16.8441 
  93   0.0000       0.698191        18.9987 
  94   0.0000       0.761861        20.7313 
  95   0.0000       0.761861        20.7313 
  96   0.0000       0.787336        21.4245 
  97   0.0000       0.787342        21.4247 
  98   0.0000       0.811694        22.0873 
  99   0.0000       0.811694        22.0873 
 100   0.0000       0.821362        22.3504 
 101   0.0000       0.821362        22.3504 
 102   0.0000       0.834916        22.7192 
 103   0.0000       0.851091        23.1594 
 104   0.0000       0.851091        23.1594 
 105   0.0000       0.876267        23.8444 
 106   0.0000       0.876276        23.8447 
 107   0.0000       0.934910        25.4402 
 108   0.0000       0.934912        25.4403 
 109   0.0000       0.964230        26.2380 
 110   0.0000       1.005976        27.3740 
 111   0.0000       1.005976        27.3740 
 112   0.0000       1.016756        27.6673 
 113   0.0000       1.016762        27.6675 
 114   0.0000       1.037749        28.2386 
 115   0.0000       1.083662        29.4880 
 116   0.0000       1.083672        29.4882 
 117   0.0000       1.118202        30.4278 
 118   0.0000       1.118203        30.4279 
 119   0.0000       1.175016        31.9738 
 120   0.0000       1.317234        35.8438 
 121   0.0000       1.317234        35.8438 
 122   0.0000       1.346209        36.6322 
 123   0.0000       1.346209        36.6322 
 124   0.0000       1.365752        37.1640 
 125   0.0000       1.376235        37.4492 
 126   0.0000       1.376235        37.4493 
 127   0.0000       1.431387        38.9500 
 128   0.0000       1.431388        38.9500 
 129   0.0000       1.455422        39.6040 
 130   0.0000       1.477903        40.2158 
 131   0.0000       1.477906        40.2159 
 132   0.0000       1.546906        42.0935 
 133   0.0000       1.546906        42.0935 
 134   0.0000       1.563824        42.5538 
 135   0.0000       1.563825        42.5538 
 136   0.0000       1.680654        45.7329 
 137   0.0000       1.680654        45.7329 
 138   0.0000       1.693472        46.0817 
 139   0.0000       1.747955        47.5643 
 140   0.0000       1.747957        47.5643 
 141   0.0000       1.912263        52.0353 
 142   0.0000       1.912263        52.0353 
 143   0.0000       1.935941        52.6796 
 144   0.0000       1.984566        54.0028 
 145   0.0000       2.255358        61.3714 
 146   0.0000       2.255371        61.3718 
 147   0.0000       2.446356        66.5687 
 148   0.0000       2.446356        66.5687 
 149   0.0000       2.473849        67.3168 
 150   0.0000       2.938770        79.9680 
 151   0.0000       2.938839        79.9699 
 152   0.0000       2.938850        79.9702 
 153   0.0000       2.938850        79.9702 
 154   0.0000       3.030564        82.4658 
 155   0.0000       3.030568        82.4660 
 156   0.0000       3.077261        83.7365 
 157   0.0000       3.128719        85.1368 
 158   0.0000       3.128720        85.1368 
 159   0.0000       3.588746        97.6547 
 160   0.0000       3.588746        97.6547 
 161   0.0000       3.643638        99.1484 
 162   0.0000       3.643648        99.1487 
 163   0.0000       3.648129        99.2706 
 164   0.0000       3.835567       104.3711 
 165   0.0000       3.835568       104.3711 
 166   0.0000       3.844026       104.6013 
 167   0.0000       3.950490       107.4983 
 168   0.0000       3.950490       107.4983 
 169   0.0000       4.081493       111.0631 
 170   0.0000       4.089036       111.2683 
 171   0.0000       4.089037       111.2683 
 172   0.0000       4.169817       113.4665 
 173   0.0000       4.169818       113.4665 
 174   0.0000       4.293025       116.8191 
 175   0.0000       4.815329       131.0318 
 176   0.0000       4.815330       131.0318 
 177   0.0000       4.972556       135.3101 
 178   0.0000       5.550283       151.0309 
 179   0.0000       5.550287       151.0310 
 180   0.0000       5.632326       153.2634 
 181   0.0000       5.632326       153.2634 
 182   0.0000       5.634792       153.3305 
 183   0.0000       5.774916       157.1435 
 184   0.0000       5.774916       157.1435 
 185   0.0000       5.776731       157.1929 
 186   0.0000       5.776825       157.1954 
 187   0.0000       5.781201       157.3145 
 188   0.0000       5.781201       157.3145 
 189   0.0000       5.799467       157.8115 
 190   0.0000       5.799492       157.8122 
 191   0.0000       5.819946       158.3688 
 192   0.0000       5.819946       158.3688 
 193   0.0000       5.839285       158.8950 
 194   0.0000       5.839457       158.8997 
 195   0.0000       5.847187       159.1101 
 196   0.0000       5.981609       162.7679 
 197   0.0000       5.981610       162.7679 
 198   0.0000       6.382642       173.6805 
 199   0.0000       9.203740       250.4465 
 200   0.0000       9.203741       250.4465 
 201   0.0000       9.204023       250.4542 
 202   0.0000       9.204769       250.4745 
 203   0.0000       9.246956       251.6225 
 204   0.0000       9.247155       251.6279 
 205   0.0000       9.319684       253.6015 
 206   0.0000       9.319685       253.6015 
 207   0.0000       9.323435       253.7036 
 208   0.0000      12.944747       352.2445 
 209   0.0000      12.944747       352.2445 
 210   0.0000      12.971497       352.9724 
 211   0.0000      12.971733       352.9788 
 212   0.0000      13.060443       355.3927 
 213   0.0000      13.060444       355.3928 
 214   0.0000      13.119368       356.9961 
 215   0.0000      17.695899       481.5299 
 216   0.0000      17.696030       481.5335 
 217   0.0000      17.779928       483.8164 
 218   0.0000      17.779928       483.8164 
 219   0.0000      17.853168       485.8094 
 220   0.0000      37.820759      1029.1552 
 221   0.0000      65.898111      1793.1788 
 222   0.0000      65.898111      1793.1788 
 223   0.0000      65.948921      1794.5614 
 224   0.0000      65.948921      1794.5614 
 225   0.0000      65.995261      1795.8223 

                    ********************************
                    * MULLIKEN POPULATION ANALYSIS *
                    ********************************

--------------------------------------------
MULLIKEN ATOMIC CHARGES AND SPIN POPULATIONS
--------------------------------------------
   0 Na:    0.670240    0.000000
   1 Cl:   -0.670240   -0.000000
Sum of atomic charges         :   -0.0000000
Sum of atomic spin populations:   -0.0000000

-----------------------------------------------------
MULLIKEN REDUCED ORBITAL CHARGES AND SPIN POPULATIONS
-----------------------------------------------------
CHARGE
  0 Nas       :     4.130451  s :     4.130451
      pz      :     2.072238  p :     6.129875
      px      :     2.028831
      py      :     2.028807
      dz2     :     0.029237  d :     0.059073
      dxz     :     0.014919
      dyz     :     0.014915
      dx2y2   :     0.000001
      dxy     :     0.000001
      f0      :     0.004924  f :     0.009013
      f+1     :     0.002044
      f-1     :     0.002044
      f+2     :     0.000000
      f-2     :     0.000000
      f+3     :     0.000000
      f-3     :     0.000000
      g0      :     0.000822  g :     0.001347
      g+1     :     0.000262
      g-1     :     0.000262
      g+2     :     0.000000
      g-2     :     0.000000
      g+3     :     0.000000
      g-3     :     0.000000
      g+4     :     0.000000
      g-4     :     0.000000
  1 Cls       :     5.962805  s :     5.962805
      pz      :     3.794542  p :    11.706234
      px      :     3.955821
      py      :     3.955871
      dz2     :     0.006699  d :     0.008809
      dxz     :     0.001053
      dyz     :     0.001047
      dx2y2   :     0.000005
      dxy     :     0.000005
      f0      :    -0.000038  f :    -0.002864
      f+1     :    -0.001413
      f-1     :    -0.001414
      f+2     :     0.000000
      f-2     :     0.000000
      f+3     :     0.000000
      f-3     :     0.000000
      g0      :    -0.001107  g :    -0.003248
      g+1     :    -0.001071
      g-1     :    -0.001071
      g+2     :     0.000000
      g-2     :     0.000000
      g+3     :     0.000000
      g-3     :     0.000000
      g+4     :     0.000000
      g-4     :     0.000000
      h0      :    -0.000559  h :    -0.001495
      h+1     :    -0.000468
      h-1     :    -0.000468
      h+2     :     0.000000
      h-2     :     0.000000
      h+3     :     0.000000
      h-3     :     0.000000
      h+4     :     0.000000
      h-4     :     0.000000
      h+5     :     0.000000
      h-5     :     0.000000

SPIN
  0 Nas       :     0.000000  s :     0.000000
      pz      :     0.000000  p :     0.000000
      px      :     0.000000
      py      :    -0.000000
      dz2     :     0.000000  d :     0.000000
      dxz     :    -0.000000
      dyz     :    -0.000000
      dx2y2   :     0.000000
      dxy     :     0.000000
      f0      :    -0.000000  f :    -0.000000
      f+1     :    -0.000000
      f-1     :    -0.000000
      f+2     :     0.000000
      f-2     :     0.000000
      f+3     :    -0.000000
      f-3     :    -0.000000
      g0      :    -0.000000  g :    -0.000000
      g+1     :     0.000000
      g-1     :    -0.000000
      g+2     :    -0.000000
      g-2     :     0.000000
      g+3     :     0.000000
      g-3     :     0.000000
      g+4     :    -0.000000
      g-4     :    -0.000000
  1 Cls       :    -0.000000  s :    -0.000000
      pz      :    -0.000000  p :    -0.000000
      px      :     0.000000
      py      :     0.000000
      dz2     :     0.000000  d :     0.000000
      dxz     :    -0.000000
      dyz     :     0.000000
      dx2y2   :     0.000000
      dxy     :    -0.000000
      f0      :     0.000000  f :     0.000000
      f+1     :    -0.000000
      f-1     :     0.000000
      f+2     :    -0.000000
      f-2     :    -0.000000
      f+3     :    -0.000000
      f-3     :     0.000000
      g0      :     0.000000  g :     0.000000
      g+1     :    -0.000000
      g-1     :     0.000000
      g+2     :     0.000000
      g-2     :    -0.000000
      g+3     :    -0.000000
      g-3     :     0.000000
      g+4     :     0.000000
      g-4     :    -0.000000
      h0      :     0.000000  h :     0.000000
      h+1     :    -0.000000
      h-1     :     0.000000
      h+2     :    -0.000000
      h-2     :    -0.000000
      h+3     :     0.000000
      h-3     :     0.000000
      h+4     :     0.000000
      h-4     :    -0.000000
      h+5     :    -0.000000
      h-5     :     0.000000


                     *******************************
                     * LOEWDIN POPULATION ANALYSIS *
                     *******************************

-------------------------------------------
LOEWDIN ATOMIC CHARGES AND SPIN POPULATIONS
-------------------------------------------
   0 Na:    0.654910   -0.000000
   1 Cl:   -0.654910   -0.000000

----------------------------------------------------
LOEWDIN REDUCED ORBITAL CHARGES AND SPIN POPULATIONS
----------------------------------------------------
CHARGE
  0 Nas       :     3.792776  s :     3.792776
      pz      :     2.148130  p :     6.147000
      px      :     1.999447
      py      :     1.999423
      dz2     :     0.119930  d :     0.228605
      dxz     :     0.054337
      dyz     :     0.054336
      dx2y2   :     0.000001
      dxy     :     0.000001
      f0      :     0.057672  f :     0.116444
      f+1     :     0.029385
      f-1     :     0.029386
      f+2     :     0.000000
      f-2     :     0.000000
      f+3     :     0.000000
      f-3     :     0.000000
      g0      :     0.025351  g :     0.060266
      g+1     :     0.017457
      g-1     :     0.017458
      g+2     :     0.000000
      g-2     :     0.000000
      g+3     :     0.000000
      g-3     :     0.000000
      g+4     :     0.000000
      g-4     :     0.000000
  1 Cls       :     5.722618  s :     5.722618
      pz      :     3.790295  p :    11.480157
      px      :     3.844910
      py      :     3.844952
      dz2     :     0.086074  d :     0.094516
      dxz     :     0.004219
      dyz     :     0.004214
      dx2y2   :     0.000005
      dxy     :     0.000005
      f0      :     0.092242  f :     0.109237
      f+1     :     0.008497
      f-1     :     0.008497
      f+2     :     0.000000
      f-2     :     0.000000
      f+3     :     0.000000
      f-3     :     0.000000
      g0      :     0.090390  g :     0.123805
      g+1     :     0.016707
      g-1     :     0.016707
      g+2     :     0.000000
      g-2     :     0.000000
      g+3     :     0.000000
      g-3     :     0.000000
      g+4     :     0.000000
      g-4     :     0.000000
      h0      :     0.074537  h :     0.124576
      h+1     :     0.025020
      h-1     :     0.025020
      h+2     :     0.000000
      h-2     :     0.000000
      h+3     :     0.000000
      h-3     :     0.000000
      h+4     :     0.000000
      h-4     :     0.000000
      h+5     :     0.000000
      h-5     :     0.000000

SPIN
  0 Nas       :    -0.000000  s :    -0.000000
      pz      :     0.000000  p :     0.000000
      px      :     0.000000
      py      :     0.000000
      dz2     :     0.000000  d :     0.000000
      dxz     :     0.000000
      dyz     :     0.000000
      dx2y2   :     0.000000
      dxy     :    -0.000000
      f0      :    -0.000000  f :    -0.000000
      f+1     :     0.000000
      f-1     :    -0.000000
      f+2     :     0.000000
      f-2     :    -0.000000
      f+3     :    -0.000000
      f-3     :    -0.000000
      g0      :    -0.000000  g :    -0.000000
      g+1     :     0.000000
      g-1     :    -0.000000
      g+2     :    -0.000000
      g-2     :     0.000000
      g+3     :     0.000000
      g-3     :     0.000000
      g+4     :    -0.000000
      g-4     :    -0.000000
  1 Cls       :     0.000000  s :     0.000000
      pz      :    -0.000000  p :    -0.000000
      px      :    -0.000000
      py      :    -0.000000
      dz2     :    -0.000000  d :     0.000000
      dxz     :     0.000000
      dyz     :     0.000000
      dx2y2   :     0.000000
      dxy     :     0.000000
      f0      :     0.000000  f :     0.000000
      f+1     :    -0.000000
      f-1     :     0.000000
      f+2     :    -0.000000
      f-2     :    -0.000000
      f+3     :    -0.000000
      f-3     :    -0.000000
      g0      :     0.000000  g :     0.000000
      g+1     :     0.000000
      g-1     :     0.000000
      g+2     :     0.000000
      g-2     :     0.000000
      g+3     :    -0.000000
      g-3     :     0.000000
      g+4     :     0.000000
      g-4     :    -0.000000
      h0      :     0.000000  h :     0.000000
      h+1     :     0.000000
      h-1     :     0.000000
      h+2     :     0.000000
      h-2     :    -0.000000
      h+3     :     0.000000
      h-3     :    -0.000000
      h+4     :     0.000000
      h-4     :    -0.000000
      h+5     :    -0.000000
      h-5     :     0.000000


                      *****************************
                      * MAYER POPULATION ANALYSIS *
                      *****************************

  NA   - Mulliken gross atomic population
  ZA   - Total nuclear charge
  QA   - Mulliken gross atomic charge
  VA   - Mayer's total valence
  BVA  - Mayer's bonded valence
  FA   - Mayer's free valence

  ATOM       NA         ZA         QA         VA         BVA        FA
  0 Na    10.3298    11.0000     0.6702     0.6110     0.6110    -0.0000
  1 Cl    17.6702    17.0000    -0.6702     0.6110     0.6110    -0.0000

  Mayer bond orders larger than 0.1
B(  0-Na,  1-Cl) :   0.6110 

-------
TIMINGS
-------

Total SCF time: 0 days 0 hours 4 min 1 sec 

Total time                  ....     241.971 sec
Sum of individual times     ....     241.385 sec  ( 99.8%)

Fock matrix formation       ....     239.927 sec  ( 99.2%)
  XC integration            ....       5.791 sec  (  2.4% of F)
    Basis function eval.    ....       0.621 sec  ( 10.7% of XC)
    Density eval.           ....       1.093 sec  ( 18.9% of XC)
    XC-Functional eval.     ....       0.139 sec  (  2.4% of XC)
    XC-Potential eval.      ....       3.236 sec  ( 55.9% of XC)
Diagonalization             ....       0.467 sec  (  0.2%)
Density matrix formation    ....       0.010 sec  (  0.0%)
Population analysis         ....       0.038 sec  (  0.0%)
Initial guess               ....       0.292 sec  (  0.1%)
Orbital Transformation      ....       0.000 sec  (  0.0%)
Orbital Orthonormalization  ....       0.000 sec  (  0.0%)
DIIS solution               ....       0.377 sec  (  0.2%)
Grid generation             ....       0.273 sec  (  0.1%)

-------------------------   --------------------
FINAL SINGLE POINT ENERGY      -622.297196578071
-------------------------   --------------------


                            ***************************************
                            *     ORCA property calculations      *
                            ***************************************

                                    ---------------------
                                    Active property flags
                                    ---------------------
   (+) Dipole Moment


------------------------------------------------------------------------------
                       ORCA ELECTRIC PROPERTIES CALCULATION
------------------------------------------------------------------------------

Dipole Moment Calculation                       ... on
Quadrupole Moment Calculation                   ... off
Polarizability Calculation                      ... off
GBWName                                         ... nacl_pbe_+0001_x.gbw
Electron density file                           ... nacl_pbe_+0001_x.scfp.tmp
The origin for moment calculation is the CENTER OF MASS  = ( 0.000000,  0.000000  2.706316)

-------------
DIPOLE MOMENT
-------------
                                X             Y             Z
Electronic contribution:      0.03277      -0.00000      -3.40483
Nuclear contribution   :      0.00000       0.00000       0.06466
                        -----------------------------------------
Total Dipole Moment    :      0.03277      -0.00000      -3.34017
                        -----------------------------------------
Magnitude (a.u.)       :      3.34033
Magnitude (Debye)      :      8.49044



--------------------
Rotational spectrum 
--------------------
 
Rotational constants in cm-1:     0.000000     0.216880     0.216880 
Rotational constants in MHz :     0.000000  6501.891981  6501.891981 

 Dipole components along the rotational axes: 
x,y,z [a.u.] :    -3.340169    -0.000000     0.032773 
x,y,z [Debye]:    -8.490036    -0.000000     0.083303 

 

Timings for individual modules:

Sum of individual times         ...      243.694 sec (=   4.062 min)
GTO integral calculation        ...        1.415 sec (=   0.024 min)   0.6 %
SCF iterations                  ...      242.278 sec (=   4.038 min)  99.4 %
                             ****ORCA TERMINATED NORMALLY****
TOTAL RUN TIME: 0 days 0 hours 4 minutes 4 seconds 513 msec
