
                                 *****************
                                 * O   R   C   A *
                                 *****************

           --- An Ab Initio, DFT and Semiempirical electronic structure package ---

                  #######################################################
                  #                        -***-                        #
                  #          Department of theory and spectroscopy      #
                  #               Directorship: Frank Neese             #
                  #        Max Planck Institute fuer Kohlenforschung    #
                  #                Kaiser Wilhelm Platz 1               #
                  #                 D-45470 Muelheim/Ruhr               #
                  #                      Germany                        #
                  #                                                     #
                  #                  All rights reserved                #
                  #                        -***-                        #
                  #######################################################


                         Program Version 4.1.2  - RELEASE  -


 With contributions from (in alphabetic order):
   Daniel Aravena         : Magnetic Properties
   Michael Atanasov       : Ab Initio Ligand Field Theory
   Alexander A. Auer      : GIAO ZORA
   Ute Becker             : Parallelization
   Giovanni Bistoni       : ED, Open-shell LED
   Martin Brehm           : Molecular dynamics
   Dmytro Bykov           : SCF Hessian
   Vijay G. Chilkuri      : MRCI spin determinant printing
   Dipayan Datta          : RHF DLPNO-CCSD density
   Achintya Kumar Dutta   : EOM-CC, STEOM-CC
   Dmitry Ganyushin       : Spin-Orbit,Spin-Spin,Magnetic field MRCI
   Miquel Garcia          : C-PCM Hessian
   Yang Guo               : DLPNO-NEVPT2, CIM, IAO-localization
   Andreas Hansen         : Spin unrestricted coupled pair/coupled cluster methods
   Benjamin Helmich-Paris : CASSCF linear response (MC-RPA)
   Lee Huntington         : MR-EOM, pCC
   Robert Izsak           : Overlap fitted RIJCOSX, COSX-SCS-MP3, EOM
   Christian Kollmar      : KDIIS, OOCD, Brueckner-CCSD(T), CCSD density
   Simone Kossmann        : Meta GGA functionals, TD-DFT gradient, OOMP2, MP2 Hessian
   Martin Krupicka        : AUTO-CI
   Lucas Lang             : DCDCAS
   Dagmar Lenk            : GEPOL surface, SMD
   Dimitrios Liakos       : Extrapolation schemes; parallel MDCI
   Dimitrios Manganas     : ROCIS; embedding schemes
   Dimitrios Pantazis     : SARC Basis sets
   Taras Petrenko         : DFT Hessian,TD-DFT gradient, ASA, ECA, R-Raman, ABS, FL, XAS/XES, NRVS
   Peter Pinski           : DLPNO-MP2, DLPNO-MP2 Gradient
   Christoph Reimann      : Effective Core Potentials
   Marius Retegan         : Local ZFS, SOC
   Christoph Riplinger    : Optimizer, TS searches, QM/MM, DLPNO-CCSD(T), (RO)-DLPNO pert. Triples
   Tobias Risthaus        : Range-separated hybrids, TD-DFT gradient, RPA, STAB
   Michael Roemelt        : Restricted open shell CIS
   Masaaki Saitow         : Open-shell DLPNO
   Barbara Sandhoefer     : DKH picture change effects
   Avijit Sen             : IP-ROCIS
   Kantharuban Sivalingam : CASSCF convergence, NEVPT2, FIC-MRCI
   Bernardo de Souza      : ESD, SOC TD-DFT
   Georgi Stoychev        : AutoAux, RI-MP2 NMR
   Willem Van den Heuvel  : Paramagnetic NMR
   Boris Wezisla          : Elementary symmetry handling
   Frank Wennmohs         : Technical directorship


 We gratefully acknowledge several colleagues who have allowed us to
 interface, adapt or use parts of their codes:
   Stefan Grimme, W. Hujo, H. Kruse,             : VdW corrections, initial TS optimization,
                  C. Bannwarth                     DFT functionals, gCP, sTDA/sTD-DF
   Ed Valeev                                     : LibInt (2-el integral package), F12 methods
   Garnet Chan, S. Sharma, J. Yang, R. Olivares  : DMRG
   Ulf Ekstrom                                   : XCFun DFT Library
   Mihaly Kallay                                 : mrcc  (arbitrary order and MRCC methods)
   Andreas Klamt, Michael Diedenhofen            : otool_cosmo (COSMO solvation model)
   Jiri Pittner, Ondrej Demel                    : Mk-CCSD
   Frank Weinhold                                : gennbo (NPA and NBO analysis)
   Christopher J. Cramer and Donald G. Truhlar   : smd solvation model
   Lars Goerigk                                  : TD-DFT with DH, B97 family of functionals
   V. Asgeirsson, H. Jonsson                     : NEB implementation
   FAccTs GmbH                                   : IRC, NEB, NEB-TS, Multilevel


 Your calculation uses the libint2 library for the computation of 2-el integrals
 For citations please refer to: http://libint.valeyev.net

 This ORCA versions uses:
   CBLAS   interface :  Fast vector & matrix operations
   LAPACKE interface :  Fast linear algebra routines
   SCALAPACK package :  Parallel linear algebra routines


----- Orbital basis set information -----
Your calculation utilizes the basis: aug-pc-4
   H, C-F              : F. Jensen, J. Chem. Phys. 115, 9113 (2001).
                         F. Jensen, J. Chem. Phys. 116, 7372 (2002).
                         F. Jensen, J. Chem. Phys. 117, 9234 (2002).
   Si-Cl               : F. Jensen, T. Helgaker, J. Chem. Phys. 121, 3463 (2004).
   He-B, Ne-Mg, Al, Ar : F. Jensen, J. Phys. Chem. A 111, 11198 (2007).
   K, Ca, Ga-Kr        : F. Jensen, J. Chem. Phys. 136, 094110 (2012).
   Sc-Zn               : F. Jensen, J. Chem. Phys. 138, 014107 (2013).

================================================================================
                                        WARNINGS
                       Please study these warnings very carefully!
================================================================================


INFO   : the flag for use of LIBINT has been found!

================================================================================
                                       INPUT FILE
================================================================================
NAME = nacl_pbe_-0001_z.inp
|  1> !uks pbe nori aug-pc-4 grid5 nofinalgrid verytightscf
|  2> 
|  3> %maxcore 6000
|  4> 
|  5> %pal nprocs 4 end
|  6> 
|  7> %scf
|  8> 	efield 0.0, 0.0, -0.001
|  9> 	maxiter 200
| 10> end
| 11> 
| 12> * xyz 0 1
| 13> Na 0.0000 0.0000 0.0000
| 14> Cl 0.0000 0.0000 2.3608
| 15> *
| 16> 
| 17>                          ****END OF INPUT****
================================================================================

                       ****************************
                       * Single Point Calculation *
                       ****************************

---------------------------------
CARTESIAN COORDINATES (ANGSTROEM)
---------------------------------
  Na     0.000000    0.000000    0.000000
  Cl     0.000000    0.000000    2.360800

----------------------------
CARTESIAN COORDINATES (A.U.)
----------------------------
  NO LB      ZA    FRAG     MASS         X           Y           Z
   0 Na   11.0000    0    22.990    0.000000    0.000000    0.000000
   1 Cl   17.0000    0    35.453    0.000000    0.000000    4.461265

--------------------------------
INTERNAL COORDINATES (ANGSTROEM)
--------------------------------
 Na     0   0   0     0.000000000000     0.00000000     0.00000000
 Cl     1   0   0     2.360800000000     0.00000000     0.00000000

---------------------------
INTERNAL COORDINATES (A.U.)
---------------------------
 Na     0   0   0     0.000000000000     0.00000000     0.00000000
 Cl     1   0   0     4.461265456961     0.00000000     0.00000000

---------------------
BASIS SET INFORMATION
---------------------
There are 2 groups of distinct atoms

 Group   1 Type Na  : 44s16p4d3f2g contracted to 8s6p4d3f2g pattern {15111311111/1111111/1111/111/11}
 Group   2 Type Cl  : 44s27p7d4f3g2h contracted to 8s7p7d4f3g2h pattern {15121211111/111111111/1111111/1111/111/11}

Atom   0Na   basis set group =>   1
Atom   1Cl   basis set group =>   2


           ************************************************************
           *        Program running with 4 parallel MPI-processes     *
           *              working on a common directory               *
           ************************************************************
------------------------------------------------------------------------------
                           ORCA GTO INTEGRAL CALCULATION
------------------------------------------------------------------------------

                         BASIS SET STATISTICS AND STARTUP INFO

 # of primitive gaussian shells          ...  156
 # of primitive gaussian functions       ...  388
 # of contracted shells                  ...   54
 # of contracted basis functions         ...  226
 Highest angular momentum                ...    5
 Maximum contraction depth               ...   15
 Integral package used                   ... LIBINT
 Integral threshhold            Thresh   ...  1.000e-12
 Primitive cut-off              TCut     ...  1.000e-14


------------------------------ INTEGRAL EVALUATION ----------------------------


 * One electron integrals 
 Pre-screening matrix                    ... done
 Shell pair data                         ... done (   0.001 sec)


An Electric Field will be added: 0.000e+00 0.000e+00 -1.000e-03 au

  ... done adding electric field perturbation



           ************************************************************
           *        Program running with 4 parallel MPI-processes     *
           *              working on a common directory               *
           ************************************************************
-------------------------------------------------------------------------------
                                 ORCA SCF
-------------------------------------------------------------------------------

------------
SCF SETTINGS
------------
Hamiltonian:
 Density Functional     Method          .... DFT(GTOs)
 Exchange Functional    Exchange        .... PBE
   PBE kappa parameter   XKappa         ....  0.804000
   PBE mue parameter    XMuePBE         ....  0.219520
 Correlation Functional Correlation     .... PBE
   PBE beta parameter  CBetaPBE         ....  0.066725
 LDA part of GGA corr.  LDAOpt          .... PW91-LDA
 Gradients option       PostSCFGGA      .... off
   Density functional embedding theory  .... OFF
   NL short-range parameter             ....  6.400000


General Settings:
 Integral files         IntName         .... nacl_pbe_-0001_z
 Hartree-Fock type      HFTyp           .... UHF
 Total Charge           Charge          ....    0
 Multiplicity           Mult            ....    1
 Number of Electrons    NEL             ....   28
 Basis Dimension        Dim             ....  226
 Nuclear Repulsion      ENuc            ....     41.9163579939 Eh

Convergence Acceleration:
 DIIS                   CNVDIIS         .... on
   Start iteration      DIISMaxIt       ....    12
   Startup error        DIISStart       ....  0.200000
   # of expansion vecs  DIISMaxEq       ....     5
   Bias factor          DIISBfac        ....   1.050
   Max. coefficient     DIISMaxC        ....  10.000
 Newton-Raphson         CNVNR           .... off
 SOSCF                  CNVSOSCF        .... off
 Level Shifting         CNVShift        .... on
   Level shift para.    LevelShift      ....    0.2500
   Turn off err/grad.   ShiftErr        ....    0.0010
 Zerner damping         CNVZerner       .... off
 Static damping         CNVDamp         .... on
   Fraction old density DampFac         ....    0.7000
   Max. Damping (<1)    DampMax         ....    0.9800
   Min. Damping (>=0)   DampMin         ....    0.0000
   Turn off err/grad.   DampErr         ....    0.1000
 Fernandez-Rico         CNVRico         .... off

SCF Procedure:
 Maximum # iterations   MaxIter         ....   200
 SCF integral mode      SCFMode         .... Direct
   Integral package                     .... LIBINT
 Reset frequency        DirectResetFreq ....    20
 Integral Threshold     Thresh          ....  1.000e-12 Eh
 Primitive CutOff       TCut            ....  1.000e-14 Eh

Convergence Tolerance:
 Convergence Check Mode ConvCheckMode   .... Total+1el-Energy
 Convergence forced     ConvForced      .... 0
 Energy Change          TolE            ....  1.000e-09 Eh
 1-El. energy change                    ....  1.000e-06 Eh
 DIIS Error             TolErr          ....  1.000e-08


Diagonalization of the overlap matrix:
Smallest eigenvalue                        ... 4.489e-05
Time for diagonalization                   ...    0.008 sec
Threshold for overlap eigenvalues          ... 1.000e-08
Number of eigenvalues below threshold      ... 0
Time for construction of square roots      ...    0.008 sec
Total time needed                          ...    0.016 sec

-------------------
DFT GRID GENERATION
-------------------

General Integration Accuracy     IntAcc      ...  5.010
Radial Grid Type                 RadialGrid  ... Gauss-Chebyshev
Angular Grid (max. acc.)         AngularGrid ... Lebedev-434
Angular grid pruning method      GridPruning ... 3 (G Style)
Weight generation scheme         WeightScheme... Becke
Basis function cutoff            BFCut       ...    1.0000e-12
Integration weight cutoff        WCut        ...    1.0000e-14
Grids for H and He will be reduced by one unit

# of grid points (after initial pruning)     ...  23144 (   0.0 sec)
# of grid points (after weights+screening)   ...  23087 (   0.0 sec)
nearest neighbour list constructed           ...    0.0 sec
Grid point re-assignment to atoms done       ...    0.0 sec
Grid point division into batches done        ...    0.2 sec
Reduced shell lists constructed in    0.3 sec

Total number of grid points                  ...    23087
Total number of batches                      ...      362
Average number of points per batch           ...       63
Average number of grid points per atom       ...    11544
Average number of shells per batch           ...    31.72 (58.74%)
Average number of basis functions per batch  ...   129.02 (57.09%)
Average number of large shells per batch     ...    27.12 (85.50%)
Average number of large basis fcns per batch ...   110.40 (85.57%)
Maximum spatial batch extension              ...  26.20, 26.20, 24.33 au
Average spatial batch extension              ...   2.07,  2.02,  1.79 au

Time for grid setup =    0.836 sec

------------------------------
INITIAL GUESS: MODEL POTENTIAL
------------------------------
Loading Hartree-Fock densities                     ... done
Calculating cut-offs                               ... done
Setting up the integral package                    ... done
Initializing the effective Hamiltonian             ... done
Starting the Coulomb interaction                   ... done (   0.0 sec)
Reading the grid                                   ... done
Mapping shells                                     ... done
Starting the XC term evaluation                    ... done (   0.1 sec)
  promolecular density results
     # of electrons  =     27.999986799
     EX              =    -41.306034510
     EC              =     -1.033162326
     EX+EC           =    -42.339196836
Transforming the Hamiltonian                       ... done (   0.0 sec)
Diagonalizing the Hamiltonian                      ... done (   0.0 sec)
Back transforming the eigenvectors                 ... done (   0.0 sec)
Now organizing SCF variables                       ... done
                      ------------------
                      INITIAL GUESS DONE (   1.2 sec)
                      ------------------
--------------
SCF ITERATIONS
--------------
ITER       Energy         Delta-E        Max-DP      RMS-DP      [F,P]     Damp
               ***  Starting incremental Fock matrix formation  ***
  0   -622.2438718410   0.000000000000 0.04162289  0.00045143  0.1451825 0.7000
  1   -622.2713418058  -0.027469964821 0.02038894  0.00029699  0.0738786 0.7000
                               ***Turning on DIIS***
  2   -622.2823310253  -0.010989219438 0.03010682  0.00046247  0.0247725 0.0000
  3   -622.2921370383  -0.009806013043 0.02155390  0.00021312  0.0587849 0.0000
  4   -622.2994428678  -0.007305829452 0.00347769  0.00006818  0.0199959 0.0000
  5   -622.3003217224  -0.000878854667 0.00136603  0.00002843  0.0081085 0.0000
  6   -622.3004923138  -0.000170591345 0.00081009  0.00001402  0.0034834 0.0000
  7   -622.3005279000  -0.000035586274 0.00060901  0.00000879  0.0017905 0.0000
  8   -622.3005377691  -0.000009869095 0.00036231  0.00000462  0.0010590 0.0000
  9   -622.3005409704  -0.000003201288 0.00044773  0.00000617  0.0006539 0.0000
 10   -622.3005428110  -0.000001840579 0.00006179  0.00000082  0.0001287 0.0000
 11   -622.3005428307  -0.000000019676 0.00001235  0.00000020  0.0000794 0.0000
 12   -622.3005428384  -0.000000007754 0.00002265  0.00000020  0.0000051 0.0000
 13   -622.3005428385  -0.000000000037 0.00000976  0.00000009  0.0000032 0.0000
 14   -622.3005428385  -0.000000000012 0.00000137  0.00000001  0.0000005 0.0000
 15   -622.3005428385   0.000000000001 0.00000053  0.00000001  0.0000000 0.0000
 16   -622.3005428385  -0.000000000004 0.00000155  0.00000002  0.0000000 0.0000
                 **** Energy Check signals convergence ****

               *****************************************************
               *                     SUCCESS                       *
               *           SCF CONVERGED AFTER  17 CYCLES          *
               *****************************************************


----------------
TOTAL SCF ENERGY
----------------

Total Energy       :         -622.30054284 Eh          -16933.65866 eV

Components:
Nuclear Repulsion  :           41.91635799 Eh            1140.60209 eV
Electronic Energy  :         -664.21690083 Eh          -18074.26075 eV
One Electron Energy:         -948.98006804 Eh          -25823.06047 eV
Two Electron Energy:          284.76316721 Eh            7748.79972 eV

Virial components:
Potential Energy   :        -1244.06129858 Eh          -33852.62897 eV
Kinetic Energy     :          621.76075574 Eh           16918.97031 eV
Virial Ratio       :            2.00086816


DFT components:
N(Alpha)           :       13.999994717539 electrons
N(Beta)            :       13.999994717539 electrons
N(Total)           :       27.999989435078 electrons
E(X)               :      -41.408086849431 Eh       
E(C)               :       -1.045730623616 Eh       
E(XC)              :      -42.453817473047 Eh       
DFET-embed. en.    :        0.000000000000 Eh       

---------------
SCF CONVERGENCE
---------------

  Last Energy change         ...    2.3874e-12  Tolerance :   1.0000e-09
  Last MAX-Density change    ...    1.8270e-07  Tolerance :   1.0000e-08
  Last RMS-Density change    ...    2.9252e-09  Tolerance :   1.0000e-09
  Last DIIS Error            ...    3.3090e-09  Tolerance :   1.0000e-08

             **** THE GBW FILE WAS UPDATED (nacl_pbe_-0001_z.gbw) ****
             **** DENSITY FILE WAS UPDATED (nacl_pbe_-0001_z.scfp.tmp) ****
             **** ENERGY FILE WAS UPDATED (nacl_pbe_-0001_z.en.tmp) ****
----------------------
UHF SPIN CONTAMINATION
----------------------

Warning: in a DFT calculation there is little theoretical justification to 
         calculate <S**2> as in Hartree-Fock theory. We will do it anyways
         but you should keep in mind that the values have only limited relevance

Expectation value of <S**2>     :    -0.000000
Ideal value S*(S+1) for S=0.0   :     0.000000
Deviation                       :    -0.000000

----------------
ORBITAL ENERGIES
----------------
                 SPIN UP ORBITALS
  NO   OCC          E(Eh)            E(eV) 
   0   1.0000    -100.535227     -2735.7026 
   1   1.0000     -37.928364     -1032.0833 
   2   1.0000      -9.059918      -246.5329 
   3   1.0000      -6.876716      -187.1250 
   4   1.0000      -6.875320      -187.0870 
   5   1.0000      -6.875320      -187.0870 
   6   1.0000      -2.097183       -57.0673 
   7   1.0000      -1.073451       -29.2101 
   8   1.0000      -1.073451       -29.2101 
   9   1.0000      -1.071415       -29.1547 
  10   1.0000      -0.621089       -16.9007 
  11   1.0000      -0.212615        -5.7856 
  12   1.0000      -0.195386        -5.3167 
  13   1.0000      -0.195386        -5.3167 
  14   0.0000      -0.078244        -2.1291 
  15   0.0000      -0.006268        -0.1706 
  16   0.0000      -0.006268        -0.1706 
  17   0.0000       0.003858         0.1050 
  18   0.0000       0.009592         0.2610 
  19   0.0000       0.020240         0.5508 
  20   0.0000       0.020240         0.5508 
  21   0.0000       0.022849         0.6218 
  22   0.0000       0.035959         0.9785 
  23   0.0000       0.040550         1.1034 
  24   0.0000       0.040550         1.1034 
  25   0.0000       0.045087         1.2269 
  26   0.0000       0.045087         1.2269 
  27   0.0000       0.045704         1.2437 
  28   0.0000       0.070727         1.9246 
  29   0.0000       0.071014         1.9324 
  30   0.0000       0.071014         1.9324 
  31   0.0000       0.073918         2.0114 
  32   0.0000       0.073918         2.0114 
  33   0.0000       0.081841         2.2270 
  34   0.0000       0.084513         2.2997 
  35   0.0000       0.084513         2.2997 
  36   0.0000       0.087595         2.3836 
  37   0.0000       0.087595         2.3836 
  38   0.0000       0.100934         2.7465 
  39   0.0000       0.110853         3.0165 
  40   0.0000       0.110853         3.0165 
  41   0.0000       0.115933         3.1547 
  42   0.0000       0.135411         3.6847 
  43   0.0000       0.135411         3.6847 
  44   0.0000       0.138216         3.7611 
  45   0.0000       0.138216         3.7611 
  46   0.0000       0.139656         3.8002 
  47   0.0000       0.139656         3.8002 
  48   0.0000       0.140941         3.8352 
  49   0.0000       0.141185         3.8418 
  50   0.0000       0.141185         3.8418 
  51   0.0000       0.163287         4.4433 
  52   0.0000       0.175577         4.7777 
  53   0.0000       0.175578         4.7777 
  54   0.0000       0.192960         5.2507 
  55   0.0000       0.192960         5.2507 
  56   0.0000       0.200481         5.4554 
  57   0.0000       0.200481         5.4554 
  58   0.0000       0.218993         5.9591 
  59   0.0000       0.229408         6.2425 
  60   0.0000       0.230969         6.2850 
  61   0.0000       0.230969         6.2850 
  62   0.0000       0.273274         7.4362 
  63   0.0000       0.295861         8.0508 
  64   0.0000       0.295861         8.0508 
  65   0.0000       0.297886         8.1059 
  66   0.0000       0.372796        10.1443 
  67   0.0000       0.372796        10.1443 
  68   0.0000       0.373569        10.1653 
  69   0.0000       0.373569        10.1653 
  70   0.0000       0.403650        10.9839 
  71   0.0000       0.410615        11.1734 
  72   0.0000       0.410615        11.1734 
  73   0.0000       0.411559        11.1991 
  74   0.0000       0.411559        11.1991 
  75   0.0000       0.423177        11.5152 
  76   0.0000       0.425672        11.5831 
  77   0.0000       0.425672        11.5831 
  78   0.0000       0.527924        14.3655 
  79   0.0000       0.527924        14.3655 
  80   0.0000       0.535226        14.5642 
  81   0.0000       0.535226        14.5642 
  82   0.0000       0.537898        14.6370 
  83   0.0000       0.567882        15.4529 
  84   0.0000       0.567882        15.4529 
  85   0.0000       0.578727        15.7480 
  86   0.0000       0.578727        15.7480 
  87   0.0000       0.591669        16.1001 
  88   0.0000       0.610642        16.6164 
  89   0.0000       0.610642        16.6164 
  90   0.0000       0.615701        16.7541 
  91   0.0000       0.615701        16.7541 
  92   0.0000       0.618122        16.8199 
  93   0.0000       0.697488        18.9796 
  94   0.0000       0.760814        20.7028 
  95   0.0000       0.760814        20.7028 
  96   0.0000       0.786874        21.4119 
  97   0.0000       0.786874        21.4119 
  98   0.0000       0.810068        22.0431 
  99   0.0000       0.810068        22.0431 
 100   0.0000       0.819808        22.3081 
 101   0.0000       0.819808        22.3081 
 102   0.0000       0.834380        22.7046 
 103   0.0000       0.849998        23.1296 
 104   0.0000       0.849998        23.1296 
 105   0.0000       0.875366        23.8199 
 106   0.0000       0.875366        23.8199 
 107   0.0000       0.933947        25.4140 
 108   0.0000       0.933950        25.4141 
 109   0.0000       0.963292        26.2125 
 110   0.0000       1.006966        27.4009 
 111   0.0000       1.006966        27.4009 
 112   0.0000       1.017092        27.6765 
 113   0.0000       1.017092        27.6765 
 114   0.0000       1.037507        28.2320 
 115   0.0000       1.083322        29.4787 
 116   0.0000       1.083322        29.4787 
 117   0.0000       1.117926        30.4203 
 118   0.0000       1.117926        30.4203 
 119   0.0000       1.176176        32.0054 
 120   0.0000       1.318152        35.8687 
 121   0.0000       1.318152        35.8687 
 122   0.0000       1.345329        36.6083 
 123   0.0000       1.345329        36.6083 
 124   0.0000       1.367443        37.2100 
 125   0.0000       1.378099        37.5000 
 126   0.0000       1.378099        37.5000 
 127   0.0000       1.433337        39.0031 
 128   0.0000       1.433338        39.0031 
 129   0.0000       1.454361        39.5752 
 130   0.0000       1.479089        40.2481 
 131   0.0000       1.479089        40.2481 
 132   0.0000       1.548365        42.1331 
 133   0.0000       1.548365        42.1331 
 134   0.0000       1.565100        42.5885 
 135   0.0000       1.565100        42.5885 
 136   0.0000       1.681117        45.7455 
 137   0.0000       1.681117        45.7455 
 138   0.0000       1.694354        46.1057 
 139   0.0000       1.747024        47.5390 
 140   0.0000       1.747024        47.5390 
 141   0.0000       1.912083        52.0304 
 142   0.0000       1.912083        52.0304 
 143   0.0000       1.935021        52.6546 
 144   0.0000       1.984689        54.0061 
 145   0.0000       2.254407        61.3455 
 146   0.0000       2.254420        61.3459 
 147   0.0000       2.445761        66.5525 
 148   0.0000       2.445761        66.5525 
 149   0.0000       2.473405        67.3048 
 150   0.0000       2.937804        79.9417 
 151   0.0000       2.937873        79.9436 
 152   0.0000       2.937909        79.9446 
 153   0.0000       2.937909        79.9446 
 154   0.0000       3.029758        82.4439 
 155   0.0000       3.029763        82.4440 
 156   0.0000       3.076662        83.7202 
 157   0.0000       3.128064        85.1189 
 158   0.0000       3.128064        85.1189 
 159   0.0000       3.587900        97.6317 
 160   0.0000       3.587900        97.6317 
 161   0.0000       3.642964        99.1301 
 162   0.0000       3.642973        99.1303 
 163   0.0000       3.649936        99.3198 
 164   0.0000       3.835140       104.3595 
 165   0.0000       3.835140       104.3595 
 166   0.0000       3.844132       104.6042 
 167   0.0000       3.951950       107.5380 
 168   0.0000       3.951950       107.5380 
 169   0.0000       4.080654       111.0402 
 170   0.0000       4.090338       111.3038 
 171   0.0000       4.090339       111.3038 
 172   0.0000       4.171001       113.4987 
 173   0.0000       4.171001       113.4987 
 174   0.0000       4.293637       116.8358 
 175   0.0000       4.814463       131.0082 
 176   0.0000       4.814463       131.0082 
 177   0.0000       4.971922       135.2929 
 178   0.0000       5.551736       151.0704 
 179   0.0000       5.551739       151.0705 
 180   0.0000       5.633455       153.2941 
 181   0.0000       5.633455       153.2941 
 182   0.0000       5.635091       153.3386 
 183   0.0000       5.774091       157.1210 
 184   0.0000       5.774091       157.1210 
 185   0.0000       5.775883       157.1698 
 186   0.0000       5.775977       157.1723 
 187   0.0000       5.780330       157.2908 
 188   0.0000       5.780330       157.2908 
 189   0.0000       5.798675       157.7900 
 190   0.0000       5.798700       157.7906 
 191   0.0000       5.819427       158.3547 
 192   0.0000       5.819427       158.3547 
 193   0.0000       5.838514       158.8740 
 194   0.0000       5.838686       158.8787 
 195   0.0000       5.846684       159.0963 
 196   0.0000       5.980979       162.7507 
 197   0.0000       5.980979       162.7507 
 198   0.0000       6.382728       173.6829 
 199   0.0000       9.203039       250.4274 
 200   0.0000       9.203039       250.4274 
 201   0.0000       9.203282       250.4340 
 202   0.0000       9.204029       250.4544 
 203   0.0000       9.246292       251.6044 
 204   0.0000       9.246490       251.6098 
 205   0.0000       9.319057       253.5844 
 206   0.0000       9.319057       253.5844 
 207   0.0000       9.322817       253.6867 
 208   0.0000      12.944063       352.2259 
 209   0.0000      12.944063       352.2259 
 210   0.0000      12.970865       352.9552 
 211   0.0000      12.971101       352.9616 
 212   0.0000      13.059848       355.3765 
 213   0.0000      13.059848       355.3765 
 214   0.0000      13.118786       356.9803 
 215   0.0000      17.695245       481.5121 
 216   0.0000      17.695377       481.5157 
 217   0.0000      17.779321       483.7999 
 218   0.0000      17.779321       483.7999 
 219   0.0000      17.852584       485.7935 
 220   0.0000      37.820044      1029.1357 
 221   0.0000      65.897521      1793.1627 
 222   0.0000      65.897522      1793.1627 
 223   0.0000      65.948358      1794.5461 
 224   0.0000      65.948358      1794.5461 
 225   0.0000      65.994708      1795.8073 

                 SPIN DOWN ORBITALS
  NO   OCC          E(Eh)            E(eV) 
   0   1.0000    -100.535227     -2735.7026 
   1   1.0000     -37.928364     -1032.0833 
   2   1.0000      -9.059918      -246.5329 
   3   1.0000      -6.876716      -187.1250 
   4   1.0000      -6.875320      -187.0870 
   5   1.0000      -6.875320      -187.0870 
   6   1.0000      -2.097183       -57.0673 
   7   1.0000      -1.073451       -29.2101 
   8   1.0000      -1.073451       -29.2101 
   9   1.0000      -1.071415       -29.1547 
  10   1.0000      -0.621089       -16.9007 
  11   1.0000      -0.212615        -5.7856 
  12   1.0000      -0.195386        -5.3167 
  13   1.0000      -0.195386        -5.3167 
  14   0.0000      -0.078244        -2.1291 
  15   0.0000      -0.006268        -0.1706 
  16   0.0000      -0.006268        -0.1706 
  17   0.0000       0.003858         0.1050 
  18   0.0000       0.009592         0.2610 
  19   0.0000       0.020240         0.5508 
  20   0.0000       0.020240         0.5508 
  21   0.0000       0.022849         0.6218 
  22   0.0000       0.035959         0.9785 
  23   0.0000       0.040550         1.1034 
  24   0.0000       0.040550         1.1034 
  25   0.0000       0.045087         1.2269 
  26   0.0000       0.045087         1.2269 
  27   0.0000       0.045704         1.2437 
  28   0.0000       0.070727         1.9246 
  29   0.0000       0.071014         1.9324 
  30   0.0000       0.071014         1.9324 
  31   0.0000       0.073918         2.0114 
  32   0.0000       0.073918         2.0114 
  33   0.0000       0.081841         2.2270 
  34   0.0000       0.084513         2.2997 
  35   0.0000       0.084513         2.2997 
  36   0.0000       0.087595         2.3836 
  37   0.0000       0.087595         2.3836 
  38   0.0000       0.100934         2.7465 
  39   0.0000       0.110853         3.0165 
  40   0.0000       0.110853         3.0165 
  41   0.0000       0.115933         3.1547 
  42   0.0000       0.135411         3.6847 
  43   0.0000       0.135411         3.6847 
  44   0.0000       0.138216         3.7611 
  45   0.0000       0.138216         3.7611 
  46   0.0000       0.139656         3.8002 
  47   0.0000       0.139656         3.8002 
  48   0.0000       0.140941         3.8352 
  49   0.0000       0.141185         3.8418 
  50   0.0000       0.141185         3.8418 
  51   0.0000       0.163287         4.4433 
  52   0.0000       0.175577         4.7777 
  53   0.0000       0.175578         4.7777 
  54   0.0000       0.192960         5.2507 
  55   0.0000       0.192960         5.2507 
  56   0.0000       0.200481         5.4554 
  57   0.0000       0.200481         5.4554 
  58   0.0000       0.218993         5.9591 
  59   0.0000       0.229408         6.2425 
  60   0.0000       0.230969         6.2850 
  61   0.0000       0.230969         6.2850 
  62   0.0000       0.273274         7.4362 
  63   0.0000       0.295861         8.0508 
  64   0.0000       0.295861         8.0508 
  65   0.0000       0.297886         8.1059 
  66   0.0000       0.372796        10.1443 
  67   0.0000       0.372796        10.1443 
  68   0.0000       0.373569        10.1653 
  69   0.0000       0.373569        10.1653 
  70   0.0000       0.403650        10.9839 
  71   0.0000       0.410615        11.1734 
  72   0.0000       0.410615        11.1734 
  73   0.0000       0.411559        11.1991 
  74   0.0000       0.411559        11.1991 
  75   0.0000       0.423177        11.5152 
  76   0.0000       0.425672        11.5831 
  77   0.0000       0.425672        11.5831 
  78   0.0000       0.527924        14.3655 
  79   0.0000       0.527924        14.3655 
  80   0.0000       0.535226        14.5642 
  81   0.0000       0.535226        14.5642 
  82   0.0000       0.537898        14.6370 
  83   0.0000       0.567882        15.4529 
  84   0.0000       0.567882        15.4529 
  85   0.0000       0.578727        15.7480 
  86   0.0000       0.578727        15.7480 
  87   0.0000       0.591669        16.1001 
  88   0.0000       0.610642        16.6164 
  89   0.0000       0.610642        16.6164 
  90   0.0000       0.615701        16.7541 
  91   0.0000       0.615701        16.7541 
  92   0.0000       0.618122        16.8199 
  93   0.0000       0.697488        18.9796 
  94   0.0000       0.760814        20.7028 
  95   0.0000       0.760814        20.7028 
  96   0.0000       0.786874        21.4119 
  97   0.0000       0.786874        21.4119 
  98   0.0000       0.810068        22.0431 
  99   0.0000       0.810068        22.0431 
 100   0.0000       0.819808        22.3081 
 101   0.0000       0.819808        22.3081 
 102   0.0000       0.834380        22.7046 
 103   0.0000       0.849998        23.1296 
 104   0.0000       0.849998        23.1296 
 105   0.0000       0.875366        23.8199 
 106   0.0000       0.875366        23.8199 
 107   0.0000       0.933947        25.4140 
 108   0.0000       0.933950        25.4141 
 109   0.0000       0.963292        26.2125 
 110   0.0000       1.006966        27.4009 
 111   0.0000       1.006966        27.4009 
 112   0.0000       1.017092        27.6765 
 113   0.0000       1.017092        27.6765 
 114   0.0000       1.037507        28.2320 
 115   0.0000       1.083322        29.4787 
 116   0.0000       1.083322        29.4787 
 117   0.0000       1.117926        30.4203 
 118   0.0000       1.117926        30.4203 
 119   0.0000       1.176176        32.0054 
 120   0.0000       1.318152        35.8687 
 121   0.0000       1.318152        35.8687 
 122   0.0000       1.345329        36.6083 
 123   0.0000       1.345329        36.6083 
 124   0.0000       1.367443        37.2100 
 125   0.0000       1.378099        37.5000 
 126   0.0000       1.378099        37.5000 
 127   0.0000       1.433337        39.0031 
 128   0.0000       1.433338        39.0031 
 129   0.0000       1.454361        39.5752 
 130   0.0000       1.479089        40.2481 
 131   0.0000       1.479089        40.2481 
 132   0.0000       1.548365        42.1331 
 133   0.0000       1.548365        42.1331 
 134   0.0000       1.565100        42.5885 
 135   0.0000       1.565100        42.5885 
 136   0.0000       1.681117        45.7455 
 137   0.0000       1.681117        45.7455 
 138   0.0000       1.694354        46.1057 
 139   0.0000       1.747024        47.5390 
 140   0.0000       1.747024        47.5390 
 141   0.0000       1.912083        52.0304 
 142   0.0000       1.912083        52.0304 
 143   0.0000       1.935021        52.6546 
 144   0.0000       1.984689        54.0061 
 145   0.0000       2.254407        61.3455 
 146   0.0000       2.254420        61.3459 
 147   0.0000       2.445761        66.5525 
 148   0.0000       2.445761        66.5525 
 149   0.0000       2.473405        67.3048 
 150   0.0000       2.937804        79.9417 
 151   0.0000       2.937873        79.9436 
 152   0.0000       2.937909        79.9446 
 153   0.0000       2.937909        79.9446 
 154   0.0000       3.029758        82.4439 
 155   0.0000       3.029763        82.4440 
 156   0.0000       3.076662        83.7202 
 157   0.0000       3.128064        85.1189 
 158   0.0000       3.128064        85.1189 
 159   0.0000       3.587900        97.6317 
 160   0.0000       3.587900        97.6317 
 161   0.0000       3.642964        99.1301 
 162   0.0000       3.642973        99.1303 
 163   0.0000       3.649936        99.3198 
 164   0.0000       3.835140       104.3595 
 165   0.0000       3.835140       104.3595 
 166   0.0000       3.844132       104.6042 
 167   0.0000       3.951950       107.5380 
 168   0.0000       3.951950       107.5380 
 169   0.0000       4.080654       111.0402 
 170   0.0000       4.090338       111.3038 
 171   0.0000       4.090339       111.3038 
 172   0.0000       4.171001       113.4987 
 173   0.0000       4.171001       113.4987 
 174   0.0000       4.293637       116.8358 
 175   0.0000       4.814463       131.0082 
 176   0.0000       4.814463       131.0082 
 177   0.0000       4.971922       135.2929 
 178   0.0000       5.551736       151.0704 
 179   0.0000       5.551739       151.0705 
 180   0.0000       5.633455       153.2941 
 181   0.0000       5.633455       153.2941 
 182   0.0000       5.635091       153.3386 
 183   0.0000       5.774091       157.1210 
 184   0.0000       5.774091       157.1210 
 185   0.0000       5.775883       157.1698 
 186   0.0000       5.775977       157.1723 
 187   0.0000       5.780330       157.2908 
 188   0.0000       5.780330       157.2908 
 189   0.0000       5.798675       157.7900 
 190   0.0000       5.798700       157.7906 
 191   0.0000       5.819427       158.3547 
 192   0.0000       5.819427       158.3547 
 193   0.0000       5.838514       158.8740 
 194   0.0000       5.838686       158.8787 
 195   0.0000       5.846684       159.0963 
 196   0.0000       5.980979       162.7507 
 197   0.0000       5.980979       162.7507 
 198   0.0000       6.382728       173.6829 
 199   0.0000       9.203039       250.4274 
 200   0.0000       9.203039       250.4274 
 201   0.0000       9.203282       250.4340 
 202   0.0000       9.204029       250.4544 
 203   0.0000       9.246292       251.6044 
 204   0.0000       9.246490       251.6098 
 205   0.0000       9.319057       253.5844 
 206   0.0000       9.319057       253.5844 
 207   0.0000       9.322817       253.6867 
 208   0.0000      12.944063       352.2259 
 209   0.0000      12.944063       352.2259 
 210   0.0000      12.970865       352.9552 
 211   0.0000      12.971101       352.9616 
 212   0.0000      13.059848       355.3765 
 213   0.0000      13.059848       355.3765 
 214   0.0000      13.118786       356.9803 
 215   0.0000      17.695245       481.5121 
 216   0.0000      17.695377       481.5157 
 217   0.0000      17.779321       483.7999 
 218   0.0000      17.779321       483.7999 
 219   0.0000      17.852584       485.7935 
 220   0.0000      37.820044      1029.1357 
 221   0.0000      65.897521      1793.1627 
 222   0.0000      65.897522      1793.1627 
 223   0.0000      65.948358      1794.5461 
 224   0.0000      65.948358      1794.5461 
 225   0.0000      65.994708      1795.8073 

                    ********************************
                    * MULLIKEN POPULATION ANALYSIS *
                    ********************************

--------------------------------------------
MULLIKEN ATOMIC CHARGES AND SPIN POPULATIONS
--------------------------------------------
   0 Na:    0.675005   -0.000000
   1 Cl:   -0.675005    0.000000
Sum of atomic charges         :   -0.0000000
Sum of atomic spin populations:    0.0000000

-----------------------------------------------------
MULLIKEN REDUCED ORBITAL CHARGES AND SPIN POPULATIONS
-----------------------------------------------------
CHARGE
  0 Nas       :     4.126887  s :     4.126887
      pz      :     2.073160  p :     6.128917
      px      :     2.027879
      py      :     2.027879
      dz2     :     0.029163  d :     0.058783
      dxz     :     0.014810
      dyz     :     0.014810
      dx2y2   :    -0.000000
      dxy     :     0.000000
      f0      :     0.004931  f :     0.009037
      f+1     :     0.002053
      f-1     :     0.002053
      f+2     :     0.000000
      f-2     :     0.000000
      f+3     :     0.000000
      f-3     :     0.000000
      g0      :     0.000831  g :     0.001371
      g+1     :     0.000270
      g-1     :     0.000270
      g+2     :     0.000000
      g-2     :     0.000000
      g+3     :     0.000000
      g-3     :     0.000000
      g+4     :     0.000000
      g-4     :     0.000000
  1 Cls       :     5.962165  s :     5.962165
      pz      :     3.798419  p :    11.712697
      px      :     3.957139
      py      :     3.957139
      dz2     :     0.006242  d :     0.007897
      dxz     :     0.000827
      dyz     :     0.000827
      dx2y2   :     0.000000
      dxy     :     0.000000
      f0      :    -0.000116  f :    -0.002981
      f+1     :    -0.001433
      f-1     :    -0.001433
      f+2     :     0.000000
      f-2     :     0.000000
      f+3     :     0.000000
      f-3     :     0.000000
      g0      :    -0.001121  g :    -0.003274
      g+1     :    -0.001076
      g-1     :    -0.001076
      g+2     :     0.000000
      g-2     :     0.000000
      g+3     :     0.000000
      g-3     :     0.000000
      g+4     :     0.000000
      g-4     :     0.000000
      h0      :    -0.000561  h :    -0.001499
      h+1     :    -0.000469
      h-1     :    -0.000469
      h+2     :    -0.000000
      h-2     :    -0.000000
      h+3     :     0.000000
      h-3     :     0.000000
      h+4     :     0.000000
      h-4     :     0.000000
      h+5     :     0.000000
      h-5     :     0.000000

SPIN
  0 Nas       :    -0.000000  s :    -0.000000
      pz      :    -0.000000  p :    -0.000000
      px      :     0.000000
      py      :    -0.000000
      dz2     :    -0.000000  d :    -0.000000
      dxz     :     0.000000
      dyz     :    -0.000000
      dx2y2   :    -0.000000
      dxy     :     0.000000
      f0      :     0.000000  f :     0.000000
      f+1     :     0.000000
      f-1     :    -0.000000
      f+2     :    -0.000000
      f-2     :    -0.000000
      f+3     :    -0.000000
      f-3     :     0.000000
      g0      :     0.000000  g :    -0.000000
      g+1     :    -0.000000
      g-1     :    -0.000000
      g+2     :     0.000000
      g-2     :    -0.000000
      g+3     :     0.000000
      g-3     :    -0.000000
      g+4     :    -0.000000
      g-4     :    -0.000000
  1 Cls       :     0.000000  s :     0.000000
      pz      :    -0.000000  p :    -0.000000
      px      :    -0.000000
      py      :     0.000000
      dz2     :    -0.000000  d :    -0.000000
      dxz     :     0.000000
      dyz     :    -0.000000
      dx2y2   :    -0.000000
      dxy     :    -0.000000
      f0      :    -0.000000  f :    -0.000000
      f+1     :     0.000000
      f-1     :    -0.000000
      f+2     :    -0.000000
      f-2     :    -0.000000
      f+3     :     0.000000
      f-3     :     0.000000
      g0      :    -0.000000  g :    -0.000000
      g+1     :     0.000000
      g-1     :    -0.000000
      g+2     :     0.000000
      g-2     :    -0.000000
      g+3     :    -0.000000
      g-3     :    -0.000000
      g+4     :     0.000000
      g-4     :    -0.000000
      h0      :     0.000000  h :     0.000000
      h+1     :     0.000000
      h-1     :    -0.000000
      h+2     :    -0.000000
      h-2     :    -0.000000
      h+3     :    -0.000000
      h-3     :     0.000000
      h+4     :     0.000000
      h-4     :    -0.000000
      h+5     :    -0.000000
      h-5     :     0.000000


                     *******************************
                     * LOEWDIN POPULATION ANALYSIS *
                     *******************************

-------------------------------------------
LOEWDIN ATOMIC CHARGES AND SPIN POPULATIONS
-------------------------------------------
   0 Na:    0.658069   -0.000000
   1 Cl:   -0.658069    0.000000

----------------------------------------------------
LOEWDIN REDUCED ORBITAL CHARGES AND SPIN POPULATIONS
----------------------------------------------------
CHARGE
  0 Nas       :     3.788946  s :     3.788946
      pz      :     2.149224  p :     6.146543
      px      :     1.998659
      py      :     1.998659
      dz2     :     0.120250  d :     0.229049
      dxz     :     0.054400
      dyz     :     0.054400
      dx2y2   :     0.000000
      dxy     :     0.000000
      f0      :     0.057901  f :     0.116908
      f+1     :     0.029503
      f-1     :     0.029503
      f+2     :     0.000000
      f-2     :     0.000000
      f+3     :     0.000000
      f-3     :     0.000000
      g0      :     0.025456  g :     0.060486
      g+1     :     0.017515
      g-1     :     0.017515
      g+2     :     0.000000
      g-2     :     0.000000
      g+3     :     0.000000
      g-3     :     0.000000
      g+4     :     0.000000
      g-4     :     0.000000
  1 Cls       :     5.722315  s :     5.722315
      pz      :     3.792919  p :    11.484086
      px      :     3.845583
      py      :     3.845583
      dz2     :     0.085893  d :     0.094134
      dxz     :     0.004120
      dyz     :     0.004120
      dx2y2   :     0.000000
      dxy     :     0.000000
      f0      :     0.092247  f :     0.109243
      f+1     :     0.008498
      f-1     :     0.008498
      f+2     :     0.000000
      f-2     :     0.000000
      f+3     :     0.000000
      f-3     :     0.000000
      g0      :     0.090357  g :     0.123767
      g+1     :     0.016705
      g-1     :     0.016705
      g+2     :     0.000000
      g-2     :     0.000000
      g+3     :     0.000000
      g-3     :     0.000000
      g+4     :     0.000000
      g-4     :     0.000000
      h0      :     0.074493  h :     0.124525
      h+1     :     0.025016
      h-1     :     0.025016
      h+2     :     0.000000
      h-2     :     0.000000
      h+3     :     0.000000
      h-3     :     0.000000
      h+4     :     0.000000
      h-4     :     0.000000
      h+5     :     0.000000
      h-5     :     0.000000

SPIN
  0 Nas       :     0.000000  s :     0.000000
      pz      :    -0.000000  p :    -0.000000
      px      :    -0.000000
      py      :    -0.000000
      dz2     :    -0.000000  d :    -0.000000
      dxz     :    -0.000000
      dyz     :    -0.000000
      dx2y2   :     0.000000
      dxy     :    -0.000000
      f0      :     0.000000  f :     0.000000
      f+1     :     0.000000
      f-1     :     0.000000
      f+2     :    -0.000000
      f-2     :    -0.000000
      f+3     :    -0.000000
      f-3     :     0.000000
      g0      :     0.000000  g :     0.000000
      g+1     :    -0.000000
      g-1     :    -0.000000
      g+2     :     0.000000
      g-2     :    -0.000000
      g+3     :     0.000000
      g-3     :    -0.000000
      g+4     :    -0.000000
      g-4     :    -0.000000
  1 Cls       :     0.000000  s :     0.000000
      pz      :     0.000000  p :     0.000000
      px      :    -0.000000
      py      :     0.000000
      dz2     :    -0.000000  d :    -0.000000
      dxz     :     0.000000
      dyz     :    -0.000000
      dx2y2   :    -0.000000
      dxy     :    -0.000000
      f0      :    -0.000000  f :    -0.000000
      f+1     :    -0.000000
      f-1     :    -0.000000
      f+2     :    -0.000000
      f-2     :     0.000000
      f+3     :     0.000000
      f-3     :     0.000000
      g0      :    -0.000000  g :    -0.000000
      g+1     :     0.000000
      g-1     :    -0.000000
      g+2     :     0.000000
      g-2     :    -0.000000
      g+3     :    -0.000000
      g-3     :    -0.000000
      g+4     :     0.000000
      g-4     :    -0.000000
      h0      :     0.000000  h :     0.000000
      h+1     :     0.000000
      h-1     :    -0.000000
      h+2     :    -0.000000
      h-2     :    -0.000000
      h+3     :    -0.000000
      h-3     :     0.000000
      h+4     :     0.000000
      h-4     :    -0.000000
      h+5     :    -0.000000
      h-5     :     0.000000


                      *****************************
                      * MAYER POPULATION ANALYSIS *
                      *****************************

  NA   - Mulliken gross atomic population
  ZA   - Total nuclear charge
  QA   - Mulliken gross atomic charge
  VA   - Mayer's total valence
  BVA  - Mayer's bonded valence
  FA   - Mayer's free valence

  ATOM       NA         ZA         QA         VA         BVA        FA
  0 Na    10.3250    11.0000     0.6750     0.5998     0.5998     0.0000
  1 Cl    17.6750    17.0000    -0.6750     0.5998     0.5998    -0.0000

  Mayer bond orders larger than 0.1
B(  0-Na,  1-Cl) :   0.5998 

-------
TIMINGS
-------

Total SCF time: 0 days 0 hours 4 min 4 sec 

Total time                  ....     244.578 sec
Sum of individual times     ....     243.933 sec  ( 99.7%)

Fock matrix formation       ....     241.830 sec  ( 98.9%)
  XC integration            ....       8.615 sec  (  3.6% of F)
    Basis function eval.    ....       0.617 sec  (  7.2% of XC)
    Density eval.           ....       1.088 sec  ( 12.6% of XC)
    XC-Functional eval.     ....       0.144 sec  (  1.7% of XC)
    XC-Potential eval.      ....       3.052 sec  ( 35.4% of XC)
Diagonalization             ....       0.455 sec  (  0.2%)
Density matrix formation    ....       0.010 sec  (  0.0%)
Population analysis         ....       0.071 sec  (  0.0%)
Initial guess               ....       0.407 sec  (  0.2%)
Orbital Transformation      ....       0.000 sec  (  0.0%)
Orbital Orthonormalization  ....       0.000 sec  (  0.0%)
DIIS solution               ....       0.324 sec  (  0.1%)
Grid generation             ....       0.836 sec  (  0.3%)

-------------------------   --------------------
FINAL SINGLE POINT ENERGY      -622.300542838490
-------------------------   --------------------


                            ***************************************
                            *     ORCA property calculations      *
                            ***************************************

                                    ---------------------
                                    Active property flags
                                    ---------------------
   (+) Dipole Moment


------------------------------------------------------------------------------
                       ORCA ELECTRIC PROPERTIES CALCULATION
------------------------------------------------------------------------------

Dipole Moment Calculation                       ... on
Quadrupole Moment Calculation                   ... off
Polarizability Calculation                      ... off
GBWName                                         ... nacl_pbe_-0001_z.gbw
Electron density file                           ... nacl_pbe_-0001_z.scfp.tmp
The origin for moment calculation is the CENTER OF MASS  = ( 0.000000,  0.000000  2.706316)

-------------
DIPOLE MOMENT
-------------
                                X             Y             Z
Electronic contribution:     -0.00000       0.00000      -3.44947
Nuclear contribution   :      0.00000       0.00000       0.06466
                        -----------------------------------------
Total Dipole Moment    :     -0.00000       0.00000      -3.38482
                        -----------------------------------------
Magnitude (a.u.)       :      3.38482
Magnitude (Debye)      :      8.60352



--------------------
Rotational spectrum 
--------------------
 
Rotational constants in cm-1:     0.000000     0.216880     0.216880 
Rotational constants in MHz :     0.000000  6501.891981  6501.891981 

 Dipole components along the rotational axes: 
x,y,z [a.u.] :    -3.384817     0.000000    -0.000000 
x,y,z [Debye]:    -8.603522     0.000000    -0.000000 

 

Timings for individual modules:

Sum of individual times         ...      246.446 sec (=   4.107 min)
GTO integral calculation        ...        1.352 sec (=   0.023 min)   0.5 %
SCF iterations                  ...      245.094 sec (=   4.085 min)  99.5 %
                             ****ORCA TERMINATED NORMALLY****
TOTAL RUN TIME: 0 days 0 hours 4 minutes 7 seconds 579 msec
