
                                 *****************
                                 * O   R   C   A *
                                 *****************

           --- An Ab Initio, DFT and Semiempirical electronic structure package ---

                  #######################################################
                  #                        -***-                        #
                  #          Department of theory and spectroscopy      #
                  #               Directorship: Frank Neese             #
                  #        Max Planck Institute fuer Kohlenforschung    #
                  #                Kaiser Wilhelm Platz 1               #
                  #                 D-45470 Muelheim/Ruhr               #
                  #                      Germany                        #
                  #                                                     #
                  #                  All rights reserved                #
                  #                        -***-                        #
                  #######################################################


                         Program Version 4.1.2  - RELEASE  -


 With contributions from (in alphabetic order):
   Daniel Aravena         : Magnetic Properties
   Michael Atanasov       : Ab Initio Ligand Field Theory
   Alexander A. Auer      : GIAO ZORA
   Ute Becker             : Parallelization
   Giovanni Bistoni       : ED, Open-shell LED
   Martin Brehm           : Molecular dynamics
   Dmytro Bykov           : SCF Hessian
   Vijay G. Chilkuri      : MRCI spin determinant printing
   Dipayan Datta          : RHF DLPNO-CCSD density
   Achintya Kumar Dutta   : EOM-CC, STEOM-CC
   Dmitry Ganyushin       : Spin-Orbit,Spin-Spin,Magnetic field MRCI
   Miquel Garcia          : C-PCM Hessian
   Yang Guo               : DLPNO-NEVPT2, CIM, IAO-localization
   Andreas Hansen         : Spin unrestricted coupled pair/coupled cluster methods
   Benjamin Helmich-Paris : CASSCF linear response (MC-RPA)
   Lee Huntington         : MR-EOM, pCC
   Robert Izsak           : Overlap fitted RIJCOSX, COSX-SCS-MP3, EOM
   Christian Kollmar      : KDIIS, OOCD, Brueckner-CCSD(T), CCSD density
   Simone Kossmann        : Meta GGA functionals, TD-DFT gradient, OOMP2, MP2 Hessian
   Martin Krupicka        : AUTO-CI
   Lucas Lang             : DCDCAS
   Dagmar Lenk            : GEPOL surface, SMD
   Dimitrios Liakos       : Extrapolation schemes; parallel MDCI
   Dimitrios Manganas     : ROCIS; embedding schemes
   Dimitrios Pantazis     : SARC Basis sets
   Taras Petrenko         : DFT Hessian,TD-DFT gradient, ASA, ECA, R-Raman, ABS, FL, XAS/XES, NRVS
   Peter Pinski           : DLPNO-MP2, DLPNO-MP2 Gradient
   Christoph Reimann      : Effective Core Potentials
   Marius Retegan         : Local ZFS, SOC
   Christoph Riplinger    : Optimizer, TS searches, QM/MM, DLPNO-CCSD(T), (RO)-DLPNO pert. Triples
   Tobias Risthaus        : Range-separated hybrids, TD-DFT gradient, RPA, STAB
   Michael Roemelt        : Restricted open shell CIS
   Masaaki Saitow         : Open-shell DLPNO
   Barbara Sandhoefer     : DKH picture change effects
   Avijit Sen             : IP-ROCIS
   Kantharuban Sivalingam : CASSCF convergence, NEVPT2, FIC-MRCI
   Bernardo de Souza      : ESD, SOC TD-DFT
   Georgi Stoychev        : AutoAux, RI-MP2 NMR
   Willem Van den Heuvel  : Paramagnetic NMR
   Boris Wezisla          : Elementary symmetry handling
   Frank Wennmohs         : Technical directorship


 We gratefully acknowledge several colleagues who have allowed us to
 interface, adapt or use parts of their codes:
   Stefan Grimme, W. Hujo, H. Kruse,             : VdW corrections, initial TS optimization,
                  C. Bannwarth                     DFT functionals, gCP, sTDA/sTD-DF
   Ed Valeev                                     : LibInt (2-el integral package), F12 methods
   Garnet Chan, S. Sharma, J. Yang, R. Olivares  : DMRG
   Ulf Ekstrom                                   : XCFun DFT Library
   Mihaly Kallay                                 : mrcc  (arbitrary order and MRCC methods)
   Andreas Klamt, Michael Diedenhofen            : otool_cosmo (COSMO solvation model)
   Jiri Pittner, Ondrej Demel                    : Mk-CCSD
   Frank Weinhold                                : gennbo (NPA and NBO analysis)
   Christopher J. Cramer and Donald G. Truhlar   : smd solvation model
   Lars Goerigk                                  : TD-DFT with DH, B97 family of functionals
   V. Asgeirsson, H. Jonsson                     : NEB implementation
   FAccTs GmbH                                   : IRC, NEB, NEB-TS, Multilevel


 Your calculation uses the libint2 library for the computation of 2-el integrals
 For citations please refer to: http://libint.valeyev.net

 This ORCA versions uses:
   CBLAS   interface :  Fast vector & matrix operations
   LAPACKE interface :  Fast linear algebra routines
   SCALAPACK package :  Parallel linear algebra routines


----- Orbital basis set information -----
Your calculation utilizes the basis: aug-pc-4
   H, C-F              : F. Jensen, J. Chem. Phys. 115, 9113 (2001).
                         F. Jensen, J. Chem. Phys. 116, 7372 (2002).
                         F. Jensen, J. Chem. Phys. 117, 9234 (2002).
   Si-Cl               : F. Jensen, T. Helgaker, J. Chem. Phys. 121, 3463 (2004).
   He-B, Ne-Mg, Al, Ar : F. Jensen, J. Phys. Chem. A 111, 11198 (2007).
   K, Ca, Ga-Kr        : F. Jensen, J. Chem. Phys. 136, 094110 (2012).
   Sc-Zn               : F. Jensen, J. Chem. Phys. 138, 014107 (2013).

================================================================================
                                        WARNINGS
                       Please study these warnings very carefully!
================================================================================


INFO   : the flag for use of LIBINT has been found!

================================================================================
                                       INPUT FILE
================================================================================
NAME = nacl_pbe_+0001_z.inp
|  1> !uks pbe nori aug-pc-4 grid5 nofinalgrid verytightscf
|  2> 
|  3> %maxcore 6000
|  4> 
|  5> %pal nprocs 4 end
|  6> 
|  7> %scf
|  8> 	efield 0.0, 0.0, 0.001
|  9> 	maxiter 200
| 10> end
| 11> 
| 12> * xyz 0 1
| 13> Na 0.0000 0.0000 0.0000
| 14> Cl 0.0000 0.0000 2.3608
| 15> *
| 16> 
| 17>                          ****END OF INPUT****
================================================================================

                       ****************************
                       * Single Point Calculation *
                       ****************************

---------------------------------
CARTESIAN COORDINATES (ANGSTROEM)
---------------------------------
  Na     0.000000    0.000000    0.000000
  Cl     0.000000    0.000000    2.360800

----------------------------
CARTESIAN COORDINATES (A.U.)
----------------------------
  NO LB      ZA    FRAG     MASS         X           Y           Z
   0 Na   11.0000    0    22.990    0.000000    0.000000    0.000000
   1 Cl   17.0000    0    35.453    0.000000    0.000000    4.461265

--------------------------------
INTERNAL COORDINATES (ANGSTROEM)
--------------------------------
 Na     0   0   0     0.000000000000     0.00000000     0.00000000
 Cl     1   0   0     2.360800000000     0.00000000     0.00000000

---------------------------
INTERNAL COORDINATES (A.U.)
---------------------------
 Na     0   0   0     0.000000000000     0.00000000     0.00000000
 Cl     1   0   0     4.461265456961     0.00000000     0.00000000

---------------------
BASIS SET INFORMATION
---------------------
There are 2 groups of distinct atoms

 Group   1 Type Na  : 44s16p4d3f2g contracted to 8s6p4d3f2g pattern {15111311111/1111111/1111/111/11}
 Group   2 Type Cl  : 44s27p7d4f3g2h contracted to 8s7p7d4f3g2h pattern {15121211111/111111111/1111111/1111/111/11}

Atom   0Na   basis set group =>   1
Atom   1Cl   basis set group =>   2


           ************************************************************
           *        Program running with 4 parallel MPI-processes     *
           *              working on a common directory               *
           ************************************************************
------------------------------------------------------------------------------
                           ORCA GTO INTEGRAL CALCULATION
------------------------------------------------------------------------------

                         BASIS SET STATISTICS AND STARTUP INFO

 # of primitive gaussian shells          ...  156
 # of primitive gaussian functions       ...  388
 # of contracted shells                  ...   54
 # of contracted basis functions         ...  226
 Highest angular momentum                ...    5
 Maximum contraction depth               ...   15
 Integral package used                   ... LIBINT
 Integral threshhold            Thresh   ...  1.000e-12
 Primitive cut-off              TCut     ...  1.000e-14


------------------------------ INTEGRAL EVALUATION ----------------------------


 * One electron integrals 
 Pre-screening matrix                    ... done
 Shell pair data                         ... done (   0.001 sec)


An Electric Field will be added: 0.000e+00 0.000e+00 1.000e-03 au

  ... done adding electric field perturbation



           ************************************************************
           *        Program running with 4 parallel MPI-processes     *
           *              working on a common directory               *
           ************************************************************
-------------------------------------------------------------------------------
                                 ORCA SCF
-------------------------------------------------------------------------------

------------
SCF SETTINGS
------------
Hamiltonian:
 Density Functional     Method          .... DFT(GTOs)
 Exchange Functional    Exchange        .... PBE
   PBE kappa parameter   XKappa         ....  0.804000
   PBE mue parameter    XMuePBE         ....  0.219520
 Correlation Functional Correlation     .... PBE
   PBE beta parameter  CBetaPBE         ....  0.066725
 LDA part of GGA corr.  LDAOpt          .... PW91-LDA
 Gradients option       PostSCFGGA      .... off
   Density functional embedding theory  .... OFF
   NL short-range parameter             ....  6.400000


General Settings:
 Integral files         IntName         .... nacl_pbe_+0001_z
 Hartree-Fock type      HFTyp           .... UHF
 Total Charge           Charge          ....    0
 Multiplicity           Mult            ....    1
 Number of Electrons    NEL             ....   28
 Basis Dimension        Dim             ....  226
 Nuclear Repulsion      ENuc            ....     41.9163579939 Eh

Convergence Acceleration:
 DIIS                   CNVDIIS         .... on
   Start iteration      DIISMaxIt       ....    12
   Startup error        DIISStart       ....  0.200000
   # of expansion vecs  DIISMaxEq       ....     5
   Bias factor          DIISBfac        ....   1.050
   Max. coefficient     DIISMaxC        ....  10.000
 Newton-Raphson         CNVNR           .... off
 SOSCF                  CNVSOSCF        .... off
 Level Shifting         CNVShift        .... on
   Level shift para.    LevelShift      ....    0.2500
   Turn off err/grad.   ShiftErr        ....    0.0010
 Zerner damping         CNVZerner       .... off
 Static damping         CNVDamp         .... on
   Fraction old density DampFac         ....    0.7000
   Max. Damping (<1)    DampMax         ....    0.9800
   Min. Damping (>=0)   DampMin         ....    0.0000
   Turn off err/grad.   DampErr         ....    0.1000
 Fernandez-Rico         CNVRico         .... off

SCF Procedure:
 Maximum # iterations   MaxIter         ....   200
 SCF integral mode      SCFMode         .... Direct
   Integral package                     .... LIBINT
 Reset frequency        DirectResetFreq ....    20
 Integral Threshold     Thresh          ....  1.000e-12 Eh
 Primitive CutOff       TCut            ....  1.000e-14 Eh

Convergence Tolerance:
 Convergence Check Mode ConvCheckMode   .... Total+1el-Energy
 Convergence forced     ConvForced      .... 0
 Energy Change          TolE            ....  1.000e-09 Eh
 1-El. energy change                    ....  1.000e-06 Eh
 DIIS Error             TolErr          ....  1.000e-08


Diagonalization of the overlap matrix:
Smallest eigenvalue                        ... 4.489e-05
Time for diagonalization                   ...    0.008 sec
Threshold for overlap eigenvalues          ... 1.000e-08
Number of eigenvalues below threshold      ... 0
Time for construction of square roots      ...    0.008 sec
Total time needed                          ...    0.016 sec

-------------------
DFT GRID GENERATION
-------------------

General Integration Accuracy     IntAcc      ...  5.010
Radial Grid Type                 RadialGrid  ... Gauss-Chebyshev
Angular Grid (max. acc.)         AngularGrid ... Lebedev-434
Angular grid pruning method      GridPruning ... 3 (G Style)
Weight generation scheme         WeightScheme... Becke
Basis function cutoff            BFCut       ...    1.0000e-12
Integration weight cutoff        WCut        ...    1.0000e-14
Grids for H and He will be reduced by one unit

# of grid points (after initial pruning)     ...  23144 (   0.0 sec)
# of grid points (after weights+screening)   ...  23087 (   0.0 sec)
nearest neighbour list constructed           ...    0.0 sec
Grid point re-assignment to atoms done       ...    0.0 sec
Grid point division into batches done        ...    0.2 sec
Reduced shell lists constructed in    0.3 sec

Total number of grid points                  ...    23087
Total number of batches                      ...      362
Average number of points per batch           ...       63
Average number of grid points per atom       ...    11544
Average number of shells per batch           ...    31.72 (58.74%)
Average number of basis functions per batch  ...   129.02 (57.09%)
Average number of large shells per batch     ...    27.12 (85.50%)
Average number of large basis fcns per batch ...   110.40 (85.57%)
Maximum spatial batch extension              ...  26.20, 26.20, 24.33 au
Average spatial batch extension              ...   2.07,  2.02,  1.79 au

Time for grid setup =    0.275 sec

------------------------------
INITIAL GUESS: MODEL POTENTIAL
------------------------------
Loading Hartree-Fock densities                     ... done
Calculating cut-offs                               ... done
Setting up the integral package                    ... done
Initializing the effective Hamiltonian             ... done
Starting the Coulomb interaction                   ... done (   0.0 sec)
Reading the grid                                   ... done
Mapping shells                                     ... done
Starting the XC term evaluation                    ... done (   0.2 sec)
  promolecular density results
     # of electrons  =     27.999986799
     EX              =    -41.306034510
     EC              =     -1.033162326
     EX+EC           =    -42.339196836
Transforming the Hamiltonian                       ... done (   0.0 sec)
Diagonalizing the Hamiltonian                      ... done (   0.0 sec)
Back transforming the eigenvectors                 ... done (   0.0 sec)
Now organizing SCF variables                       ... done
                      ------------------
                      INITIAL GUESS DONE (   0.6 sec)
                      ------------------
--------------
SCF ITERATIONS
--------------
ITER       Energy         Delta-E        Max-DP      RMS-DP      [F,P]     Damp
               ***  Starting incremental Fock matrix formation  ***
  0   -622.2371279417   0.000000000000 0.04143375  0.00045200  0.1446315 0.7000
  1   -622.2646657877  -0.027537845978 0.02019530  0.00029829  0.0734361 0.7000
                               ***Turning on DIIS***
  2   -622.2756863252  -0.011020537497 0.03063172  0.00046576  0.0244048 0.0000
  3   -622.2852416390  -0.009555313886 0.02132526  0.00021280  0.0592078 0.0000
  4   -622.2926820317  -0.007440392644 0.00371598  0.00006931  0.0206550 0.0000
  5   -622.2936164878  -0.000934456107 0.00149842  0.00002977  0.0085297 0.0000
  6   -622.2938048132  -0.000188325423 0.00092990  0.00001512  0.0036954 0.0000
  7   -622.2938451294  -0.000040316140 0.00069051  0.00000967  0.0019626 0.0000
  8   -622.2938565715  -0.000011442146 0.00041036  0.00000515  0.0011699 0.0000
  9   -622.2938603570  -0.000003785461 0.00049708  0.00000703  0.0007330 0.0000
 10   -622.2938626679  -0.000002310922 0.00007986  0.00000106  0.0001438 0.0000
 11   -622.2938626977  -0.000000029861 0.00001816  0.00000026  0.0000910 0.0000
 12   -622.2938627081  -0.000000010327 0.00002568  0.00000023  0.0000057 0.0000
 13   -622.2938627081  -0.000000000057 0.00001140  0.00000010  0.0000036 0.0000
 14   -622.2938627082  -0.000000000019 0.00000182  0.00000002  0.0000007 0.0000
 15   -622.2938627081   0.000000000003 0.00000061  0.00000001  0.0000001 0.0000
 16   -622.2938627081   0.000000000003 0.00000143  0.00000002  0.0000001 0.0000
                 **** Energy Check signals convergence ****

               *****************************************************
               *                     SUCCESS                       *
               *           SCF CONVERGED AFTER  17 CYCLES          *
               *****************************************************


----------------
TOTAL SCF ENERGY
----------------

Total Energy       :         -622.29386271 Eh          -16933.47689 eV

Components:
Nuclear Repulsion  :           41.91635799 Eh            1140.60209 eV
Electronic Energy  :         -664.21022070 Eh          -18074.07897 eV
One Electron Energy:         -948.96347300 Eh          -25822.60890 eV
Two Electron Energy:          284.75325230 Eh            7748.52992 eV

Virial components:
Potential Energy   :        -1244.05362311 Eh          -33852.42011 eV
Kinetic Energy     :          621.75976040 Eh           16918.94322 eV
Virial Ratio       :            2.00085902


DFT components:
N(Alpha)           :       13.999994725525 electrons
N(Beta)            :       13.999994725525 electrons
N(Total)           :       27.999989451050 electrons
E(X)               :      -41.406556391063 Eh       
E(C)               :       -1.045564520021 Eh       
E(XC)              :      -42.452120911084 Eh       
DFET-embed. en.    :        0.000000000000 Eh       

---------------
SCF CONVERGENCE
---------------

  Last Energy change         ...   -3.2969e-12  Tolerance :   1.0000e-09
  Last MAX-Density change    ...    1.5689e-06  Tolerance :   1.0000e-08
  Last RMS-Density change    ...    1.4992e-08  Tolerance :   1.0000e-09
  Last DIIS Error            ...    3.2650e-09  Tolerance :   1.0000e-08

             **** THE GBW FILE WAS UPDATED (nacl_pbe_+0001_z.gbw) ****
             **** DENSITY FILE WAS UPDATED (nacl_pbe_+0001_z.scfp.tmp) ****
             **** ENERGY FILE WAS UPDATED (nacl_pbe_+0001_z.en.tmp) ****
----------------------
UHF SPIN CONTAMINATION
----------------------

Warning: in a DFT calculation there is little theoretical justification to 
         calculate <S**2> as in Hartree-Fock theory. We will do it anyways
         but you should keep in mind that the values have only limited relevance

Expectation value of <S**2>     :     0.000000
Ideal value S*(S+1) for S=0.0   :     0.000000
Deviation                       :     0.000000

----------------
ORBITAL ENERGIES
----------------
                 SPIN UP ORBITALS
  NO   OCC          E(Eh)            E(eV) 
   0   1.0000    -100.534185     -2735.6743 
   1   1.0000     -37.931194     -1032.1603 
   2   1.0000      -9.058786      -246.5021 
   3   1.0000      -6.875672      -187.0965 
   4   1.0000      -6.874158      -187.0554 
   5   1.0000      -6.874158      -187.0554 
   6   1.0000      -2.099991       -57.1437 
   7   1.0000      -1.076259       -29.2865 
   8   1.0000      -1.076259       -29.2865 
   9   1.0000      -1.074224       -29.2311 
  10   1.0000      -0.619590       -16.8599 
  11   1.0000      -0.211207        -5.7472 
  12   1.0000      -0.193669        -5.2700 
  13   1.0000      -0.193669        -5.2700 
  14   0.0000      -0.086630        -2.3573 
  15   0.0000      -0.014769        -0.4019 
  16   0.0000      -0.014769        -0.4019 
  17   0.0000      -0.012097        -0.3292 
  18   0.0000       0.003666         0.0998 
  19   0.0000       0.014143         0.3849 
  20   0.0000       0.014143         0.3849 
  21   0.0000       0.019037         0.5180 
  22   0.0000       0.029979         0.8158 
  23   0.0000       0.033395         0.9087 
  24   0.0000       0.033395         0.9087 
  25   0.0000       0.037520         1.0210 
  26   0.0000       0.037520         1.0210 
  27   0.0000       0.042573         1.1585 
  28   0.0000       0.064850         1.7647 
  29   0.0000       0.064850         1.7647 
  30   0.0000       0.074731         2.0335 
  31   0.0000       0.077553         2.1103 
  32   0.0000       0.077553         2.1103 
  33   0.0000       0.079659         2.1676 
  34   0.0000       0.079659         2.1676 
  35   0.0000       0.080144         2.1808 
  36   0.0000       0.080837         2.1997 
  37   0.0000       0.080837         2.1997 
  38   0.0000       0.091164         2.4807 
  39   0.0000       0.108693         2.9577 
  40   0.0000       0.108693         2.9577 
  41   0.0000       0.113669         3.0931 
  42   0.0000       0.130210         3.5432 
  43   0.0000       0.130210         3.5432 
  44   0.0000       0.131539         3.5793 
  45   0.0000       0.131539         3.5793 
  46   0.0000       0.134951         3.6722 
  47   0.0000       0.134951         3.6722 
  48   0.0000       0.135514         3.6875 
  49   0.0000       0.135514         3.6875 
  50   0.0000       0.139068         3.7842 
  51   0.0000       0.164658         4.4806 
  52   0.0000       0.176624         4.8062 
  53   0.0000       0.176624         4.8062 
  54   0.0000       0.188235         5.1221 
  55   0.0000       0.188235         5.1221 
  56   0.0000       0.205080         5.5805 
  57   0.0000       0.205080         5.5805 
  58   0.0000       0.218217         5.9380 
  59   0.0000       0.225763         6.1433 
  60   0.0000       0.227834         6.1997 
  61   0.0000       0.227834         6.1997 
  62   0.0000       0.270651         7.3648 
  63   0.0000       0.295036         8.0283 
  64   0.0000       0.295036         8.0283 
  65   0.0000       0.295474         8.0403 
  66   0.0000       0.374916        10.2020 
  67   0.0000       0.374916        10.2020 
  68   0.0000       0.375606        10.2208 
  69   0.0000       0.375606        10.2208 
  70   0.0000       0.403903        10.9908 
  71   0.0000       0.411197        11.1892 
  72   0.0000       0.411197        11.1892 
  73   0.0000       0.411852        11.2071 
  74   0.0000       0.411852        11.2071 
  75   0.0000       0.425663        11.5829 
  76   0.0000       0.427739        11.6394 
  77   0.0000       0.427739        11.6394 
  78   0.0000       0.526528        14.3276 
  79   0.0000       0.526528        14.3276 
  80   0.0000       0.537574        14.6281 
  81   0.0000       0.537574        14.6281 
  82   0.0000       0.540250        14.7010 
  83   0.0000       0.570493        15.5239 
  84   0.0000       0.570493        15.5239 
  85   0.0000       0.580085        15.7849 
  86   0.0000       0.580086        15.7849 
  87   0.0000       0.584750        15.9119 
  88   0.0000       0.612390        16.6640 
  89   0.0000       0.612390        16.6640 
  90   0.0000       0.615244        16.7416 
  91   0.0000       0.615244        16.7416 
  92   0.0000       0.619855        16.8671 
  93   0.0000       0.698898        19.0180 
  94   0.0000       0.762882        20.7591 
  95   0.0000       0.762882        20.7591 
  96   0.0000       0.787808        21.4374 
  97   0.0000       0.787808        21.4374 
  98   0.0000       0.813298        22.1310 
  99   0.0000       0.813298        22.1310 
 100   0.0000       0.822871        22.3915 
 101   0.0000       0.822871        22.3915 
 102   0.0000       0.835454        22.7339 
 103   0.0000       0.852175        23.1889 
 104   0.0000       0.852176        23.1889 
 105   0.0000       0.877160        23.8687 
 106   0.0000       0.877160        23.8687 
 107   0.0000       0.935849        25.4657 
 108   0.0000       0.935851        25.4658 
 109   0.0000       0.965173        26.2637 
 110   0.0000       1.005012        27.3478 
 111   0.0000       1.005012        27.3478 
 112   0.0000       1.016402        27.6577 
 113   0.0000       1.016402        27.6577 
 114   0.0000       1.037994        28.2453 
 115   0.0000       1.084039        29.4982 
 116   0.0000       1.084039        29.4982 
 117   0.0000       1.118468        30.4351 
 118   0.0000       1.118469        30.4351 
 119   0.0000       1.173857        31.9423 
 120   0.0000       1.316304        35.8184 
 121   0.0000       1.316304        35.8184 
 122   0.0000       1.347059        36.6553 
 123   0.0000       1.347059        36.6553 
 124   0.0000       1.364065        37.1181 
 125   0.0000       1.374390        37.3991 
 126   0.0000       1.374390        37.3991 
 127   0.0000       1.429437        38.8970 
 128   0.0000       1.429438        38.8970 
 129   0.0000       1.456480        39.6328 
 130   0.0000       1.476705        40.1832 
 131   0.0000       1.476705        40.1832 
 132   0.0000       1.545451        42.0539 
 133   0.0000       1.545451        42.0539 
 134   0.0000       1.562563        42.5195 
 135   0.0000       1.562563        42.5195 
 136   0.0000       1.680188        45.7202 
 137   0.0000       1.680188        45.7202 
 138   0.0000       1.692581        46.0575 
 139   0.0000       1.748862        47.5890 
 140   0.0000       1.748862        47.5890 
 141   0.0000       1.912432        52.0399 
 142   0.0000       1.912432        52.0399 
 143   0.0000       1.936836        52.7040 
 144   0.0000       1.984432        53.9991 
 145   0.0000       2.256282        61.3965 
 146   0.0000       2.256295        61.3969 
 147   0.0000       2.446926        66.5843 
 148   0.0000       2.446926        66.5843 
 149   0.0000       2.474266        67.3282 
 150   0.0000       2.939709        79.9935 
 151   0.0000       2.939761        79.9950 
 152   0.0000       2.939761        79.9950 
 153   0.0000       2.939778        79.9954 
 154   0.0000       3.031340        82.4869 
 155   0.0000       3.031344        82.4871 
 156   0.0000       3.077832        83.7521 
 157   0.0000       3.129345        85.1538 
 158   0.0000       3.129345        85.1538 
 159   0.0000       3.589562        97.6769 
 160   0.0000       3.589562        97.6769 
 161   0.0000       3.644280        99.1659 
 162   0.0000       3.644290        99.1662 
 163   0.0000       3.646328        99.2216 
 164   0.0000       3.835965       104.3819 
 165   0.0000       3.835965       104.3819 
 166   0.0000       3.843897       104.5978 
 167   0.0000       3.949045       107.4590 
 168   0.0000       3.949045       107.4590 
 169   0.0000       4.082302       111.0851 
 170   0.0000       4.087745       111.2332 
 171   0.0000       4.087745       111.2332 
 172   0.0000       4.168641       113.4345 
 173   0.0000       4.168641       113.4345 
 174   0.0000       4.292411       116.8024 
 175   0.0000       4.816165       131.0545 
 176   0.0000       4.816165       131.0545 
 177   0.0000       4.973155       135.3264 
 178   0.0000       5.548845       150.9917 
 179   0.0000       5.548849       150.9919 
 180   0.0000       5.631197       153.2327 
 181   0.0000       5.631197       153.2327 
 182   0.0000       5.634478       153.3219 
 183   0.0000       5.775708       157.1650 
 184   0.0000       5.775708       157.1650 
 185   0.0000       5.777548       157.2151 
 186   0.0000       5.777641       157.2176 
 187   0.0000       5.782043       157.3374 
 188   0.0000       5.782043       157.3374 
 189   0.0000       5.800224       157.8321 
 190   0.0000       5.800249       157.8328 
 191   0.0000       5.820440       158.3822 
 192   0.0000       5.820440       158.3822 
 193   0.0000       5.840026       158.9152 
 194   0.0000       5.840198       158.9199 
 195   0.0000       5.847661       159.1230 
 196   0.0000       5.982206       162.7841 
 197   0.0000       5.982206       162.7841 
 198   0.0000       6.382536       173.6776 
 199   0.0000       9.204410       250.4647 
 200   0.0000       9.204410       250.4647 
 201   0.0000       9.204731       250.4735 
 202   0.0000       9.205478       250.4938 
 203   0.0000       9.247583       251.6395 
 204   0.0000       9.247782       251.6449 
 205   0.0000       9.320273       253.6175 
 206   0.0000       9.320273       253.6175 
 207   0.0000       9.324014       253.7193 
 208   0.0000      12.945401       352.2623 
 209   0.0000      12.945401       352.2623 
 210   0.0000      12.972092       352.9886 
 211   0.0000      12.972329       352.9950 
 212   0.0000      13.061000       355.4079 
 213   0.0000      13.061000       355.4079 
 214   0.0000      13.119908       357.0109 
 215   0.0000      17.696518       481.5467 
 216   0.0000      17.696650       481.5503 
 217   0.0000      17.780497       483.8319 
 218   0.0000      17.780497       483.8319 
 219   0.0000      17.853713       485.8242 
 220   0.0000      37.821440      1029.1737 
 221   0.0000      65.898665      1793.1938 
 222   0.0000      65.898666      1793.1939 
 223   0.0000      65.949446      1794.5757 
 224   0.0000      65.949446      1794.5757 
 225   0.0000      65.995775      1795.8363 

                 SPIN DOWN ORBITALS
  NO   OCC          E(Eh)            E(eV) 
   0   1.0000    -100.534185     -2735.6743 
   1   1.0000     -37.931194     -1032.1603 
   2   1.0000      -9.058786      -246.5021 
   3   1.0000      -6.875672      -187.0965 
   4   1.0000      -6.874158      -187.0554 
   5   1.0000      -6.874158      -187.0554 
   6   1.0000      -2.099991       -57.1437 
   7   1.0000      -1.076259       -29.2865 
   8   1.0000      -1.076259       -29.2865 
   9   1.0000      -1.074224       -29.2311 
  10   1.0000      -0.619590       -16.8599 
  11   1.0000      -0.211207        -5.7472 
  12   1.0000      -0.193669        -5.2700 
  13   1.0000      -0.193669        -5.2700 
  14   0.0000      -0.086630        -2.3573 
  15   0.0000      -0.014769        -0.4019 
  16   0.0000      -0.014769        -0.4019 
  17   0.0000      -0.012097        -0.3292 
  18   0.0000       0.003666         0.0998 
  19   0.0000       0.014143         0.3849 
  20   0.0000       0.014143         0.3849 
  21   0.0000       0.019037         0.5180 
  22   0.0000       0.029979         0.8158 
  23   0.0000       0.033395         0.9087 
  24   0.0000       0.033395         0.9087 
  25   0.0000       0.037520         1.0210 
  26   0.0000       0.037520         1.0210 
  27   0.0000       0.042573         1.1585 
  28   0.0000       0.064850         1.7647 
  29   0.0000       0.064850         1.7647 
  30   0.0000       0.074731         2.0335 
  31   0.0000       0.077553         2.1103 
  32   0.0000       0.077553         2.1103 
  33   0.0000       0.079659         2.1676 
  34   0.0000       0.079659         2.1676 
  35   0.0000       0.080144         2.1808 
  36   0.0000       0.080837         2.1997 
  37   0.0000       0.080837         2.1997 
  38   0.0000       0.091164         2.4807 
  39   0.0000       0.108693         2.9577 
  40   0.0000       0.108693         2.9577 
  41   0.0000       0.113669         3.0931 
  42   0.0000       0.130210         3.5432 
  43   0.0000       0.130210         3.5432 
  44   0.0000       0.131539         3.5793 
  45   0.0000       0.131539         3.5793 
  46   0.0000       0.134951         3.6722 
  47   0.0000       0.134951         3.6722 
  48   0.0000       0.135514         3.6875 
  49   0.0000       0.135514         3.6875 
  50   0.0000       0.139068         3.7842 
  51   0.0000       0.164658         4.4806 
  52   0.0000       0.176624         4.8062 
  53   0.0000       0.176624         4.8062 
  54   0.0000       0.188235         5.1221 
  55   0.0000       0.188235         5.1221 
  56   0.0000       0.205080         5.5805 
  57   0.0000       0.205080         5.5805 
  58   0.0000       0.218217         5.9380 
  59   0.0000       0.225763         6.1433 
  60   0.0000       0.227834         6.1997 
  61   0.0000       0.227834         6.1997 
  62   0.0000       0.270651         7.3648 
  63   0.0000       0.295036         8.0283 
  64   0.0000       0.295036         8.0283 
  65   0.0000       0.295474         8.0403 
  66   0.0000       0.374916        10.2020 
  67   0.0000       0.374916        10.2020 
  68   0.0000       0.375606        10.2208 
  69   0.0000       0.375606        10.2208 
  70   0.0000       0.403903        10.9908 
  71   0.0000       0.411197        11.1892 
  72   0.0000       0.411197        11.1892 
  73   0.0000       0.411852        11.2071 
  74   0.0000       0.411852        11.2071 
  75   0.0000       0.425663        11.5829 
  76   0.0000       0.427739        11.6394 
  77   0.0000       0.427739        11.6394 
  78   0.0000       0.526528        14.3276 
  79   0.0000       0.526528        14.3276 
  80   0.0000       0.537574        14.6281 
  81   0.0000       0.537574        14.6281 
  82   0.0000       0.540250        14.7010 
  83   0.0000       0.570493        15.5239 
  84   0.0000       0.570493        15.5239 
  85   0.0000       0.580085        15.7849 
  86   0.0000       0.580086        15.7849 
  87   0.0000       0.584750        15.9119 
  88   0.0000       0.612390        16.6640 
  89   0.0000       0.612390        16.6640 
  90   0.0000       0.615244        16.7416 
  91   0.0000       0.615244        16.7416 
  92   0.0000       0.619855        16.8671 
  93   0.0000       0.698898        19.0180 
  94   0.0000       0.762882        20.7591 
  95   0.0000       0.762882        20.7591 
  96   0.0000       0.787808        21.4374 
  97   0.0000       0.787808        21.4374 
  98   0.0000       0.813298        22.1310 
  99   0.0000       0.813298        22.1310 
 100   0.0000       0.822871        22.3915 
 101   0.0000       0.822871        22.3915 
 102   0.0000       0.835454        22.7339 
 103   0.0000       0.852175        23.1889 
 104   0.0000       0.852176        23.1889 
 105   0.0000       0.877160        23.8687 
 106   0.0000       0.877160        23.8687 
 107   0.0000       0.935849        25.4657 
 108   0.0000       0.935851        25.4658 
 109   0.0000       0.965173        26.2637 
 110   0.0000       1.005012        27.3478 
 111   0.0000       1.005012        27.3478 
 112   0.0000       1.016402        27.6577 
 113   0.0000       1.016402        27.6577 
 114   0.0000       1.037994        28.2453 
 115   0.0000       1.084039        29.4982 
 116   0.0000       1.084039        29.4982 
 117   0.0000       1.118468        30.4351 
 118   0.0000       1.118469        30.4351 
 119   0.0000       1.173857        31.9423 
 120   0.0000       1.316304        35.8184 
 121   0.0000       1.316304        35.8184 
 122   0.0000       1.347059        36.6553 
 123   0.0000       1.347059        36.6553 
 124   0.0000       1.364065        37.1181 
 125   0.0000       1.374390        37.3991 
 126   0.0000       1.374390        37.3991 
 127   0.0000       1.429437        38.8970 
 128   0.0000       1.429438        38.8970 
 129   0.0000       1.456480        39.6328 
 130   0.0000       1.476705        40.1832 
 131   0.0000       1.476705        40.1832 
 132   0.0000       1.545451        42.0539 
 133   0.0000       1.545451        42.0539 
 134   0.0000       1.562563        42.5195 
 135   0.0000       1.562563        42.5195 
 136   0.0000       1.680188        45.7202 
 137   0.0000       1.680188        45.7202 
 138   0.0000       1.692581        46.0575 
 139   0.0000       1.748862        47.5890 
 140   0.0000       1.748862        47.5890 
 141   0.0000       1.912432        52.0399 
 142   0.0000       1.912432        52.0399 
 143   0.0000       1.936836        52.7040 
 144   0.0000       1.984432        53.9991 
 145   0.0000       2.256282        61.3965 
 146   0.0000       2.256295        61.3969 
 147   0.0000       2.446926        66.5843 
 148   0.0000       2.446926        66.5843 
 149   0.0000       2.474266        67.3282 
 150   0.0000       2.939709        79.9935 
 151   0.0000       2.939761        79.9950 
 152   0.0000       2.939761        79.9950 
 153   0.0000       2.939778        79.9954 
 154   0.0000       3.031340        82.4869 
 155   0.0000       3.031344        82.4871 
 156   0.0000       3.077832        83.7521 
 157   0.0000       3.129345        85.1538 
 158   0.0000       3.129345        85.1538 
 159   0.0000       3.589562        97.6769 
 160   0.0000       3.589562        97.6769 
 161   0.0000       3.644280        99.1659 
 162   0.0000       3.644290        99.1662 
 163   0.0000       3.646328        99.2216 
 164   0.0000       3.835965       104.3819 
 165   0.0000       3.835965       104.3819 
 166   0.0000       3.843897       104.5978 
 167   0.0000       3.949045       107.4590 
 168   0.0000       3.949045       107.4590 
 169   0.0000       4.082302       111.0851 
 170   0.0000       4.087745       111.2332 
 171   0.0000       4.087745       111.2332 
 172   0.0000       4.168641       113.4345 
 173   0.0000       4.168641       113.4345 
 174   0.0000       4.292411       116.8024 
 175   0.0000       4.816165       131.0545 
 176   0.0000       4.816165       131.0545 
 177   0.0000       4.973155       135.3264 
 178   0.0000       5.548845       150.9917 
 179   0.0000       5.548849       150.9919 
 180   0.0000       5.631197       153.2327 
 181   0.0000       5.631197       153.2327 
 182   0.0000       5.634478       153.3219 
 183   0.0000       5.775708       157.1650 
 184   0.0000       5.775708       157.1650 
 185   0.0000       5.777548       157.2151 
 186   0.0000       5.777641       157.2176 
 187   0.0000       5.782043       157.3374 
 188   0.0000       5.782043       157.3374 
 189   0.0000       5.800224       157.8321 
 190   0.0000       5.800249       157.8328 
 191   0.0000       5.820440       158.3822 
 192   0.0000       5.820440       158.3822 
 193   0.0000       5.840026       158.9152 
 194   0.0000       5.840198       158.9199 
 195   0.0000       5.847661       159.1230 
 196   0.0000       5.982206       162.7841 
 197   0.0000       5.982206       162.7841 
 198   0.0000       6.382536       173.6776 
 199   0.0000       9.204410       250.4647 
 200   0.0000       9.204410       250.4647 
 201   0.0000       9.204731       250.4735 
 202   0.0000       9.205478       250.4938 
 203   0.0000       9.247583       251.6395 
 204   0.0000       9.247782       251.6449 
 205   0.0000       9.320273       253.6175 
 206   0.0000       9.320273       253.6175 
 207   0.0000       9.324014       253.7193 
 208   0.0000      12.945401       352.2623 
 209   0.0000      12.945401       352.2623 
 210   0.0000      12.972092       352.9886 
 211   0.0000      12.972329       352.9950 
 212   0.0000      13.061000       355.4079 
 213   0.0000      13.061000       355.4079 
 214   0.0000      13.119908       357.0109 
 215   0.0000      17.696518       481.5467 
 216   0.0000      17.696650       481.5503 
 217   0.0000      17.780497       483.8319 
 218   0.0000      17.780497       483.8319 
 219   0.0000      17.853713       485.8242 
 220   0.0000      37.821440      1029.1737 
 221   0.0000      65.898665      1793.1938 
 222   0.0000      65.898666      1793.1939 
 223   0.0000      65.949446      1794.5757 
 224   0.0000      65.949446      1794.5757 
 225   0.0000      65.995775      1795.8363 

                    ********************************
                    * MULLIKEN POPULATION ANALYSIS *
                    ********************************

--------------------------------------------
MULLIKEN ATOMIC CHARGES AND SPIN POPULATIONS
--------------------------------------------
   0 Na:    0.665696    0.000000
   1 Cl:   -0.665696   -0.000000
Sum of atomic charges         :   -0.0000000
Sum of atomic spin populations:   -0.0000000

-----------------------------------------------------
MULLIKEN REDUCED ORBITAL CHARGES AND SPIN POPULATIONS
-----------------------------------------------------
CHARGE
  0 Nas       :     4.133988  s :     4.133988
      pz      :     2.071210  p :     6.130728
      px      :     2.029759
      py      :     2.029759
      dz2     :     0.029283  d :     0.059289
      dxz     :     0.015003
      dyz     :     0.015003
      dx2y2   :     0.000000
      dxy     :     0.000000
      f0      :     0.004909  f :     0.008975
      f+1     :     0.002033
      f-1     :     0.002033
      f+2     :     0.000000
      f-2     :     0.000000
      f+3     :     0.000000
      f-3     :     0.000000
      g0      :     0.000813  g :     0.001324
      g+1     :     0.000256
      g-1     :     0.000256
      g+2     :     0.000000
      g-2     :     0.000000
      g+3     :     0.000000
      g-3     :     0.000000
      g+4     :     0.000000
      g-4     :     0.000000
  1 Cls       :     5.963466  s :     5.963466
      pz      :     3.790768  p :    11.699979
      px      :     3.954605
      py      :     3.954605
      dz2     :     0.007171  d :     0.009713
      dxz     :     0.001271
      dyz     :     0.001271
      dx2y2   :     0.000000
      dxy     :     0.000000
      f0      :     0.000042  f :    -0.002747
      f+1     :    -0.001394
      f-1     :    -0.001394
      f+2     :     0.000000
      f-2     :     0.000000
      f+3     :     0.000000
      f-3     :     0.000000
      g0      :    -0.001093  g :    -0.003222
      g+1     :    -0.001065
      g-1     :    -0.001065
      g+2     :    -0.000000
      g-2     :     0.000000
      g+3     :     0.000000
      g-3     :     0.000000
      g+4     :     0.000000
      g-4     :     0.000000
      h0      :    -0.000556  h :    -0.001491
      h+1     :    -0.000468
      h-1     :    -0.000468
      h+2     :    -0.000000
      h-2     :    -0.000000
      h+3     :     0.000000
      h-3     :     0.000000
      h+4     :     0.000000
      h-4     :     0.000000
      h+5     :     0.000000
      h-5     :     0.000000

SPIN
  0 Nas       :     0.000000  s :     0.000000
      pz      :    -0.000000  p :    -0.000000
      px      :    -0.000000
      py      :     0.000000
      dz2     :     0.000000  d :     0.000000
      dxz     :    -0.000000
      dyz     :     0.000000
      dx2y2   :     0.000000
      dxy     :    -0.000000
      f0      :     0.000000  f :     0.000000
      f+1     :    -0.000000
      f-1     :     0.000000
      f+2     :     0.000000
      f-2     :    -0.000000
      f+3     :     0.000000
      f-3     :    -0.000000
      g0      :     0.000000  g :     0.000000
      g+1     :    -0.000000
      g-1     :     0.000000
      g+2     :    -0.000000
      g-2     :    -0.000000
      g+3     :     0.000000
      g-3     :     0.000000
      g+4     :    -0.000000
      g-4     :     0.000000
  1 Cls       :     0.000000  s :     0.000000
      pz      :    -0.000000  p :    -0.000000
      px      :     0.000000
      py      :    -0.000000
      dz2     :    -0.000000  d :    -0.000000
      dxz     :    -0.000000
      dyz     :    -0.000000
      dx2y2   :     0.000000
      dxy     :     0.000000
      f0      :    -0.000000  f :    -0.000000
      f+1     :    -0.000000
      f-1     :    -0.000000
      f+2     :    -0.000000
      f-2     :     0.000000
      f+3     :     0.000000
      f-3     :    -0.000000
      g0      :     0.000000  g :     0.000000
      g+1     :    -0.000000
      g-1     :    -0.000000
      g+2     :    -0.000000
      g-2     :    -0.000000
      g+3     :     0.000000
      g-3     :     0.000000
      g+4     :    -0.000000
      g-4     :     0.000000
      h0      :     0.000000  h :    -0.000000
      h+1     :    -0.000000
      h-1     :    -0.000000
      h+2     :    -0.000000
      h-2     :     0.000000
      h+3     :     0.000000
      h-3     :    -0.000000
      h+4     :    -0.000000
      h-4     :    -0.000000
      h+5     :     0.000000
      h-5     :    -0.000000


                     *******************************
                     * LOEWDIN POPULATION ANALYSIS *
                     *******************************

-------------------------------------------
LOEWDIN ATOMIC CHARGES AND SPIN POPULATIONS
-------------------------------------------
   0 Na:    0.651651   -0.000000
   1 Cl:   -0.651651   -0.000000

----------------------------------------------------
LOEWDIN REDUCED ORBITAL CHARGES AND SPIN POPULATIONS
----------------------------------------------------
CHARGE
  0 Nas       :     3.796790  s :     3.796790
      pz      :     2.146976  p :     6.147377
      px      :     2.000201
      py      :     2.000201
      dz2     :     0.119616  d :     0.228130
      dxz     :     0.054257
      dyz     :     0.054257
      dx2y2   :     0.000000
      dxy     :     0.000000
      f0      :     0.057446  f :     0.115993
      f+1     :     0.029274
      f-1     :     0.029274
      f+2     :     0.000000
      f-2     :     0.000000
      f+3     :     0.000000
      f-3     :     0.000000
      g0      :     0.025247  g :     0.060058
      g+1     :     0.017405
      g-1     :     0.017405
      g+2     :     0.000000
      g-2     :     0.000000
      g+3     :     0.000000
      g-3     :     0.000000
      g+4     :     0.000000
      g-4     :     0.000000
  1 Cls       :     5.722920  s :     5.722920
      pz      :     3.787496  p :    11.476131
      px      :     3.844318
      py      :     3.844318
      dz2     :     0.086266  d :     0.094899
      dxz     :     0.004317
      dyz     :     0.004317
      dx2y2   :     0.000000
      dxy     :     0.000000
      f0      :     0.092236  f :     0.109229
      f+1     :     0.008496
      f-1     :     0.008496
      f+2     :     0.000000
      f-2     :     0.000000
      f+3     :     0.000000
      f-3     :     0.000000
      g0      :     0.090424  g :     0.123843
      g+1     :     0.016710
      g-1     :     0.016710
      g+2     :     0.000000
      g-2     :     0.000000
      g+3     :     0.000000
      g-3     :     0.000000
      g+4     :     0.000000
      g-4     :     0.000000
      h0      :     0.074582  h :     0.124629
      h+1     :     0.025023
      h-1     :     0.025023
      h+2     :     0.000000
      h-2     :     0.000000
      h+3     :     0.000000
      h-3     :     0.000000
      h+4     :     0.000000
      h-4     :     0.000000
      h+5     :     0.000000
      h-5     :     0.000000

SPIN
  0 Nas       :    -0.000000  s :    -0.000000
      pz      :    -0.000000  p :    -0.000000
      px      :    -0.000000
      py      :    -0.000000
      dz2     :     0.000000  d :     0.000000
      dxz     :    -0.000000
      dyz     :     0.000000
      dx2y2   :     0.000000
      dxy     :     0.000000
      f0      :    -0.000000  f :    -0.000000
      f+1     :     0.000000
      f-1     :     0.000000
      f+2     :     0.000000
      f-2     :    -0.000000
      f+3     :     0.000000
      f-3     :    -0.000000
      g0      :     0.000000  g :     0.000000
      g+1     :    -0.000000
      g-1     :    -0.000000
      g+2     :    -0.000000
      g-2     :    -0.000000
      g+3     :     0.000000
      g-3     :     0.000000
      g+4     :    -0.000000
      g-4     :     0.000000
  1 Cls       :    -0.000000  s :    -0.000000
      pz      :    -0.000000  p :    -0.000000
      px      :     0.000000
      py      :    -0.000000
      dz2     :    -0.000000  d :    -0.000000
      dxz     :     0.000000
      dyz     :    -0.000000
      dx2y2   :    -0.000000
      dxy     :    -0.000000
      f0      :    -0.000000  f :    -0.000000
      f+1     :    -0.000000
      f-1     :    -0.000000
      f+2     :    -0.000000
      f-2     :     0.000000
      f+3     :     0.000000
      f-3     :    -0.000000
      g0      :     0.000000  g :     0.000000
      g+1     :    -0.000000
      g-1     :    -0.000000
      g+2     :     0.000000
      g-2     :    -0.000000
      g+3     :     0.000000
      g-3     :     0.000000
      g+4     :    -0.000000
      g-4     :     0.000000
      h0      :    -0.000000  h :    -0.000000
      h+1     :    -0.000000
      h-1     :     0.000000
      h+2     :    -0.000000
      h-2     :     0.000000
      h+3     :     0.000000
      h-3     :    -0.000000
      h+4     :    -0.000000
      h-4     :    -0.000000
      h+5     :     0.000000
      h-5     :    -0.000000


                      *****************************
                      * MAYER POPULATION ANALYSIS *
                      *****************************

  NA   - Mulliken gross atomic population
  ZA   - Total nuclear charge
  QA   - Mulliken gross atomic charge
  VA   - Mayer's total valence
  BVA  - Mayer's bonded valence
  FA   - Mayer's free valence

  ATOM       NA         ZA         QA         VA         BVA        FA
  0 Na    10.3343    11.0000     0.6657     0.6218     0.6218    -0.0000
  1 Cl    17.6657    17.0000    -0.6657     0.6218     0.6218    -0.0000

  Mayer bond orders larger than 0.1
B(  0-Na,  1-Cl) :   0.6218 

-------
TIMINGS
-------

Total SCF time: 0 days 0 hours 4 min 2 sec 

Total time                  ....     242.610 sec
Sum of individual times     ....     241.695 sec  ( 99.6%)

Fock matrix formation       ....     240.264 sec  ( 99.0%)
  XC integration            ....       5.347 sec  (  2.2% of F)
    Basis function eval.    ....       0.611 sec  ( 11.4% of XC)
    Density eval.           ....       1.064 sec  ( 19.9% of XC)
    XC-Functional eval.     ....       0.136 sec  (  2.6% of XC)
    XC-Potential eval.      ....       3.080 sec  ( 57.6% of XC)
Diagonalization             ....       0.458 sec  (  0.2%)
Density matrix formation    ....       0.011 sec  (  0.0%)
Population analysis         ....       0.039 sec  (  0.0%)
Initial guess               ....       0.284 sec  (  0.1%)
Orbital Transformation      ....       0.000 sec  (  0.0%)
Orbital Orthonormalization  ....       0.000 sec  (  0.0%)
DIIS solution               ....       0.364 sec  (  0.2%)
Grid generation             ....       0.275 sec  (  0.1%)

-------------------------   --------------------
FINAL SINGLE POINT ENERGY      -622.293862708148
-------------------------   --------------------


                            ***************************************
                            *     ORCA property calculations      *
                            ***************************************

                                    ---------------------
                                    Active property flags
                                    ---------------------
   (+) Dipole Moment


------------------------------------------------------------------------------
                       ORCA ELECTRIC PROPERTIES CALCULATION
------------------------------------------------------------------------------

Dipole Moment Calculation                       ... on
Quadrupole Moment Calculation                   ... off
Polarizability Calculation                      ... off
GBWName                                         ... nacl_pbe_+0001_z.gbw
Electron density file                           ... nacl_pbe_+0001_z.scfp.tmp
The origin for moment calculation is the CENTER OF MASS  = ( 0.000000,  0.000000  2.706316)

-------------
DIPOLE MOMENT
-------------
                                X             Y             Z
Electronic contribution:     -0.00000      -0.00000      -3.35913
Nuclear contribution   :      0.00000       0.00000       0.06466
                        -----------------------------------------
Total Dipole Moment    :     -0.00000      -0.00000      -3.29447
                        -----------------------------------------
Magnitude (a.u.)       :      3.29447
Magnitude (Debye)      :      8.37388



--------------------
Rotational spectrum 
--------------------
 
Rotational constants in cm-1:     0.000000     0.216880     0.216880 
Rotational constants in MHz :     0.000000  6501.891981  6501.891981 

 Dipole components along the rotational axes: 
x,y,z [a.u.] :    -3.294470    -0.000000    -0.000000 
x,y,z [Debye]:    -8.373877    -0.000000    -0.000000 

 

Timings for individual modules:

Sum of individual times         ...      244.297 sec (=   4.072 min)
GTO integral calculation        ...        1.391 sec (=   0.023 min)   0.6 %
SCF iterations                  ...      242.906 sec (=   4.048 min)  99.4 %
                             ****ORCA TERMINATED NORMALLY****
TOTAL RUN TIME: 0 days 0 hours 4 minutes 5 seconds 117 msec
