
                                 *****************
                                 * O   R   C   A *
                                 *****************

           --- An Ab Initio, DFT and Semiempirical electronic structure package ---

                  #######################################################
                  #                        -***-                        #
                  #          Department of theory and spectroscopy      #
                  #               Directorship: Frank Neese             #
                  #        Max Planck Institute fuer Kohlenforschung    #
                  #                Kaiser Wilhelm Platz 1               #
                  #                 D-45470 Muelheim/Ruhr               #
                  #                      Germany                        #
                  #                                                     #
                  #                  All rights reserved                #
                  #                        -***-                        #
                  #######################################################


                         Program Version 4.1.2  - RELEASE  -


 With contributions from (in alphabetic order):
   Daniel Aravena         : Magnetic Properties
   Michael Atanasov       : Ab Initio Ligand Field Theory
   Alexander A. Auer      : GIAO ZORA
   Ute Becker             : Parallelization
   Giovanni Bistoni       : ED, Open-shell LED
   Martin Brehm           : Molecular dynamics
   Dmytro Bykov           : SCF Hessian
   Vijay G. Chilkuri      : MRCI spin determinant printing
   Dipayan Datta          : RHF DLPNO-CCSD density
   Achintya Kumar Dutta   : EOM-CC, STEOM-CC
   Dmitry Ganyushin       : Spin-Orbit,Spin-Spin,Magnetic field MRCI
   Miquel Garcia          : C-PCM Hessian
   Yang Guo               : DLPNO-NEVPT2, CIM, IAO-localization
   Andreas Hansen         : Spin unrestricted coupled pair/coupled cluster methods
   Benjamin Helmich-Paris : CASSCF linear response (MC-RPA)
   Lee Huntington         : MR-EOM, pCC
   Robert Izsak           : Overlap fitted RIJCOSX, COSX-SCS-MP3, EOM
   Christian Kollmar      : KDIIS, OOCD, Brueckner-CCSD(T), CCSD density
   Simone Kossmann        : Meta GGA functionals, TD-DFT gradient, OOMP2, MP2 Hessian
   Martin Krupicka        : AUTO-CI
   Lucas Lang             : DCDCAS
   Dagmar Lenk            : GEPOL surface, SMD
   Dimitrios Liakos       : Extrapolation schemes; parallel MDCI
   Dimitrios Manganas     : ROCIS; embedding schemes
   Dimitrios Pantazis     : SARC Basis sets
   Taras Petrenko         : DFT Hessian,TD-DFT gradient, ASA, ECA, R-Raman, ABS, FL, XAS/XES, NRVS
   Peter Pinski           : DLPNO-MP2, DLPNO-MP2 Gradient
   Christoph Reimann      : Effective Core Potentials
   Marius Retegan         : Local ZFS, SOC
   Christoph Riplinger    : Optimizer, TS searches, QM/MM, DLPNO-CCSD(T), (RO)-DLPNO pert. Triples
   Tobias Risthaus        : Range-separated hybrids, TD-DFT gradient, RPA, STAB
   Michael Roemelt        : Restricted open shell CIS
   Masaaki Saitow         : Open-shell DLPNO
   Barbara Sandhoefer     : DKH picture change effects
   Avijit Sen             : IP-ROCIS
   Kantharuban Sivalingam : CASSCF convergence, NEVPT2, FIC-MRCI
   Bernardo de Souza      : ESD, SOC TD-DFT
   Georgi Stoychev        : AutoAux, RI-MP2 NMR
   Willem Van den Heuvel  : Paramagnetic NMR
   Boris Wezisla          : Elementary symmetry handling
   Frank Wennmohs         : Technical directorship


 We gratefully acknowledge several colleagues who have allowed us to
 interface, adapt or use parts of their codes:
   Stefan Grimme, W. Hujo, H. Kruse,             : VdW corrections, initial TS optimization,
                  C. Bannwarth                     DFT functionals, gCP, sTDA/sTD-DF
   Ed Valeev                                     : LibInt (2-el integral package), F12 methods
   Garnet Chan, S. Sharma, J. Yang, R. Olivares  : DMRG
   Ulf Ekstrom                                   : XCFun DFT Library
   Mihaly Kallay                                 : mrcc  (arbitrary order and MRCC methods)
   Andreas Klamt, Michael Diedenhofen            : otool_cosmo (COSMO solvation model)
   Jiri Pittner, Ondrej Demel                    : Mk-CCSD
   Frank Weinhold                                : gennbo (NPA and NBO analysis)
   Christopher J. Cramer and Donald G. Truhlar   : smd solvation model
   Lars Goerigk                                  : TD-DFT with DH, B97 family of functionals
   V. Asgeirsson, H. Jonsson                     : NEB implementation
   FAccTs GmbH                                   : IRC, NEB, NEB-TS, Multilevel


 Your calculation uses the libint2 library for the computation of 2-el integrals
 For citations please refer to: http://libint.valeyev.net

 This ORCA versions uses:
   CBLAS   interface :  Fast vector & matrix operations
   LAPACKE interface :  Fast linear algebra routines
   SCALAPACK package :  Parallel linear algebra routines


----- Orbital basis set information -----
Your calculation utilizes the basis: aug-pc-4
   H, C-F              : F. Jensen, J. Chem. Phys. 115, 9113 (2001).
                         F. Jensen, J. Chem. Phys. 116, 7372 (2002).
                         F. Jensen, J. Chem. Phys. 117, 9234 (2002).
   Si-Cl               : F. Jensen, T. Helgaker, J. Chem. Phys. 121, 3463 (2004).
   He-B, Ne-Mg, Al, Ar : F. Jensen, J. Phys. Chem. A 111, 11198 (2007).
   K, Ca, Ga-Kr        : F. Jensen, J. Chem. Phys. 136, 094110 (2012).
   Sc-Zn               : F. Jensen, J. Chem. Phys. 138, 014107 (2013).

================================================================================
                                        WARNINGS
                       Please study these warnings very carefully!
================================================================================


INFO   : the flag for use of LIBINT has been found!

================================================================================
                                       INPUT FILE
================================================================================
NAME = nacn_pbe_-0001_x.inp
|  1> !uks pbe nori aug-pc-4 grid5 nofinalgrid verytightscf
|  2> 
|  3> %maxcore 6000
|  4> 
|  5> %pal nprocs 4 end
|  6> 
|  7> %scf
|  8> 	efield -0.001, 0.0, 0.0
|  9> 	maxiter 200
| 10> end
| 11> 
| 12> * xyz 0 1
| 13> C 1.0848000000 0.6433000000 0.0000000000
| 14> N 0.0000000000 1.1328000000 0.0000000000
| 15> Na -0.5917000000 -1.0717000000 0.0000000000
| 16> *
| 17> 
| 18>                          ****END OF INPUT****
================================================================================

                       ****************************
                       * Single Point Calculation *
                       ****************************

---------------------------------
CARTESIAN COORDINATES (ANGSTROEM)
---------------------------------
  C      1.084800    0.643300    0.000000
  N      0.000000    1.132800    0.000000
  Na    -0.591700   -1.071700    0.000000

----------------------------
CARTESIAN COORDINATES (A.U.)
----------------------------
  NO LB      ZA    FRAG     MASS         X           Y           Z
   0 C     6.0000    0    12.011    2.049975    1.215661    0.000000
   1 N     7.0000    0    14.007    0.000000    2.140682    0.000000
   2 Na   11.0000    0    22.990   -1.118151   -2.025219    0.000000

--------------------------------
INTERNAL COORDINATES (ANGSTROEM)
--------------------------------
 C      0   0   0     0.000000000000     0.00000000     0.00000000
 N      1   0   0     1.190126585704     0.00000000     0.00000000
 Na     2   1   0     2.282526919885    80.73781782     0.00000000

---------------------------
INTERNAL COORDINATES (A.U.)
---------------------------
 C      0   0   0     0.000000000000     0.00000000     0.00000000
 N      1   0   0     2.249013311680     0.00000000     0.00000000
 Na     2   1   0     4.313350771886    80.73781782     0.00000000

---------------------
BASIS SET INFORMATION
---------------------
There are 3 groups of distinct atoms

 Group   1 Type C   : 28s12p7d4f3g2h contracted to 9s8p7d4f3g2h pattern {11101111111/51111111/1111111/1111/111/11}
 Group   2 Type N   : 27s12p7d4f3g2h contracted to 9s8p7d4f3g2h pattern {1191111111/51111111/1111111/1111/111/11}
 Group   3 Type Na  : 44s16p4d3f2g contracted to 8s6p4d3f2g pattern {15111311111/1111111/1111/111/11}

Atom   0C    basis set group =>   1
Atom   1N    basis set group =>   2
Atom   2Na   basis set group =>   3


           ************************************************************
           *        Program running with 4 parallel MPI-processes     *
           *              working on a common directory               *
           ************************************************************
------------------------------------------------------------------------------
                           ORCA GTO INTEGRAL CALCULATION
------------------------------------------------------------------------------

                         BASIS SET STATISTICS AND STARTUP INFO

 # of primitive gaussian shells          ...  180
 # of primitive gaussian functions       ...  502
 # of contracted shells                  ...   89
 # of contracted basis functions         ...  375
 Highest angular momentum                ...    5
 Maximum contraction depth               ...   15
 Integral package used                   ... LIBINT
 Integral threshhold            Thresh   ...  1.000e-12
 Primitive cut-off              TCut     ...  1.000e-14


------------------------------ INTEGRAL EVALUATION ----------------------------


 * One electron integrals 
 Pre-screening matrix                    ... done
 Shell pair data                         ... done (   0.002 sec)


An Electric Field will be added: -1.000e-03 0.000e+00 0.000e+00 au

  ... done adding electric field perturbation



           ************************************************************
           *        Program running with 4 parallel MPI-processes     *
           *              working on a common directory               *
           ************************************************************
-------------------------------------------------------------------------------
                                 ORCA SCF
-------------------------------------------------------------------------------

------------
SCF SETTINGS
------------
Hamiltonian:
 Density Functional     Method          .... DFT(GTOs)
 Exchange Functional    Exchange        .... PBE
   PBE kappa parameter   XKappa         ....  0.804000
   PBE mue parameter    XMuePBE         ....  0.219520
 Correlation Functional Correlation     .... PBE
   PBE beta parameter  CBetaPBE         ....  0.066725
 LDA part of GGA corr.  LDAOpt          .... PW91-LDA
 Gradients option       PostSCFGGA      .... off
   Density functional embedding theory  .... OFF
   NL short-range parameter             ....  6.400000


General Settings:
 Integral files         IntName         .... nacn_pbe_-0001_x
 Hartree-Fock type      HFTyp           .... UHF
 Total Charge           Charge          ....    0
 Multiplicity           Mult            ....    1
 Number of Electrons    NEL             ....   24
 Basis Dimension        Dim             ....  375
 Nuclear Repulsion      ENuc            ....     51.0890517879 Eh

Convergence Acceleration:
 DIIS                   CNVDIIS         .... on
   Start iteration      DIISMaxIt       ....    12
   Startup error        DIISStart       ....  0.200000
   # of expansion vecs  DIISMaxEq       ....     5
   Bias factor          DIISBfac        ....   1.050
   Max. coefficient     DIISMaxC        ....  10.000
 Newton-Raphson         CNVNR           .... off
 SOSCF                  CNVSOSCF        .... off
 Level Shifting         CNVShift        .... on
   Level shift para.    LevelShift      ....    0.2500
   Turn off err/grad.   ShiftErr        ....    0.0010
 Zerner damping         CNVZerner       .... off
 Static damping         CNVDamp         .... on
   Fraction old density DampFac         ....    0.7000
   Max. Damping (<1)    DampMax         ....    0.9800
   Min. Damping (>=0)   DampMin         ....    0.0000
   Turn off err/grad.   DampErr         ....    0.1000
 Fernandez-Rico         CNVRico         .... off

SCF Procedure:
 Maximum # iterations   MaxIter         ....   200
 SCF integral mode      SCFMode         .... Direct
   Integral package                     .... LIBINT
 Reset frequency        DirectResetFreq ....    20
 Integral Threshold     Thresh          ....  1.000e-12 Eh
 Primitive CutOff       TCut            ....  1.000e-14 Eh

Convergence Tolerance:
 Convergence Check Mode ConvCheckMode   .... Total+1el-Energy
 Convergence forced     ConvForced      .... 0
 Energy Change          TolE            ....  1.000e-09 Eh
 1-El. energy change                    ....  1.000e-06 Eh
 DIIS Error             TolErr          ....  1.000e-08


Diagonalization of the overlap matrix:
Smallest eigenvalue                        ... 8.473e-07
Time for diagonalization                   ...    0.280 sec
Threshold for overlap eigenvalues          ... 1.000e-08
Number of eigenvalues below threshold      ... 0
Time for construction of square roots      ...    0.019 sec
Total time needed                          ...    0.300 sec

-------------------
DFT GRID GENERATION
-------------------

General Integration Accuracy     IntAcc      ...  5.010
Radial Grid Type                 RadialGrid  ... Gauss-Chebyshev
Angular Grid (max. acc.)         AngularGrid ... Lebedev-434
Angular grid pruning method      GridPruning ... 3 (G Style)
Weight generation scheme         WeightScheme... Becke
Basis function cutoff            BFCut       ...    1.0000e-12
Integration weight cutoff        WCut        ...    1.0000e-14
Grids for H and He will be reduced by one unit

# of grid points (after initial pruning)     ...  32548 (   0.0 sec)
# of grid points (after weights+screening)   ...  32341 (   0.0 sec)
nearest neighbour list constructed           ...    0.0 sec
Grid point re-assignment to atoms done       ...    0.0 sec
Grid point division into batches done        ...    0.3 sec
Reduced shell lists constructed in    0.4 sec

Total number of grid points                  ...    32341
Total number of batches                      ...      507
Average number of points per batch           ...       63
Average number of grid points per atom       ...    10780
Average number of shells per batch           ...    65.92 (74.07%)
Average number of basis functions per batch  ...   283.30 (75.55%)
Average number of large shells per batch     ...    59.16 (89.74%)
Average number of large basis fcns per batch ...   255.62 (90.23%)
Maximum spatial batch extension              ...  20.76, 17.88, 21.65 au
Average spatial batch extension              ...   1.08,  1.11,  1.15 au

Time for grid setup =    0.431 sec

------------------------------
INITIAL GUESS: MODEL POTENTIAL
------------------------------
Loading Hartree-Fock densities                     ... done
Calculating cut-offs                               ... done
Setting up the integral package                    ... done
Initializing the effective Hamiltonian             ... done
Starting the Coulomb interaction                   ... done (   0.0 sec)
Reading the grid                                   ... done
Mapping shells                                     ... done
Starting the XC term evaluation                    ... done (   0.5 sec)
  promolecular density results
     # of electrons  =     23.999998496
     EX              =    -25.467102563
     EC              =     -0.781783322
     EX+EC           =    -26.248885885
Transforming the Hamiltonian                       ... done (   0.0 sec)
Diagonalizing the Hamiltonian                      ... done (   0.0 sec)
Back transforming the eigenvectors                 ... done (   0.0 sec)
Now organizing SCF variables                       ... done
                      ------------------
                      INITIAL GUESS DONE (   1.1 sec)
                      ------------------
--------------
SCF ITERATIONS
--------------
ITER       Energy         Delta-E        Max-DP      RMS-DP      [F,P]     Damp
               ***  Starting incremental Fock matrix formation  ***
  0   -254.8521584774   0.000000000000 0.02654029  0.00032826  0.2625185 0.7000
  1   -254.9148482614  -0.062689783921 0.02604069  0.00023327  0.0890982 0.7000
                               ***Turning on DIIS***
  2   -254.9326827353  -0.017834473942 0.03560571  0.00037950  0.0394351 0.0000
  3   -254.9631184636  -0.030435728303 0.02101316  0.00017389  0.0481186 0.0000
  4   -254.9711112745  -0.007992810842 0.00427626  0.00004604  0.0424680 0.0000
  5   -254.9737159725  -0.002604698031 0.00414416  0.00002857  0.0122115 0.0000
  6   -254.9739730832  -0.000257110695 0.00252369  0.00001552  0.0025448 0.0000
  7   -254.9739977268  -0.000024643623 0.00218714  0.00001415  0.0009705 0.0000
  8   -254.9740052451  -0.000007518310 0.00024562  0.00000263  0.0002711 0.0000
  9   -254.9740054055  -0.000000160435 0.00012955  0.00000087  0.0002571 0.0000
 10   -254.9740054922  -0.000000086690 0.00004162  0.00000023  0.0000211 0.0000
 11   -254.9740054931  -0.000000000826 0.00001476  0.00000008  0.0000063 0.0000
 12   -254.9740054932  -0.000000000123 0.00000187  0.00000001  0.0000011 0.0000
 13   -254.9740054932  -0.000000000013 0.00000101  0.00000002  0.0000003 0.0000
 14   -254.9740054932   0.000000000006 0.00000642  0.00000007  0.0000003 0.0000
                 **** Energy Check signals convergence ****

               *****************************************************
               *                     SUCCESS                       *
               *           SCF CONVERGED AFTER  15 CYCLES          *
               *****************************************************


----------------
TOTAL SCF ENERGY
----------------

Total Energy       :         -254.97400549 Eh           -6938.19542 eV

Components:
Nuclear Repulsion  :           51.08905179 Eh            1390.20378 eV
Electronic Energy  :         -306.06305728 Eh           -8328.39920 eV
One Electron Energy:         -455.53792902 Eh          -12395.81724 eV
Two Electron Energy:          149.47487174 Eh            4067.41804 eV

Virial components:
Potential Energy   :         -509.38116521 Eh          -13860.96618 eV
Kinetic Energy     :          254.40715971 Eh            6922.77076 eV
Virial Ratio       :            2.00222810


DFT components:
N(Alpha)           :       11.999998241313 electrons
N(Beta)            :       11.999998241313 electrons
N(Total)           :       23.999996482626 electrons
E(X)               :      -25.697008697959 Eh       
E(C)               :       -0.799036179892 Eh       
E(XC)              :      -26.496044877851 Eh       
DFET-embed. en.    :        0.000000000000 Eh       

---------------
SCF CONVERGENCE
---------------

  Last Energy change         ...    4.0643e-12  Tolerance :   1.0000e-09
  Last MAX-Density change    ...    9.3684e-06  Tolerance :   1.0000e-08
  Last RMS-Density change    ...    1.0781e-07  Tolerance :   1.0000e-09
  Last DIIS Error            ...    3.8995e-08  Tolerance :   1.0000e-08

             **** THE GBW FILE WAS UPDATED (nacn_pbe_-0001_x.gbw) ****
             **** DENSITY FILE WAS UPDATED (nacn_pbe_-0001_x.scfp.tmp) ****
             **** ENERGY FILE WAS UPDATED (nacn_pbe_-0001_x.en.tmp) ****
----------------------
UHF SPIN CONTAMINATION
----------------------

Warning: in a DFT calculation there is little theoretical justification to 
         calculate <S**2> as in Hartree-Fock theory. We will do it anyways
         but you should keep in mind that the values have only limited relevance

Expectation value of <S**2>     :    -0.000000
Ideal value S*(S+1) for S=0.0   :     0.000000
Deviation                       :    -0.000000

----------------
ORBITAL ENERGIES
----------------
                 SPIN UP ORBITALS
  NO   OCC          E(Eh)            E(eV) 
   0   1.0000     -37.941760     -1032.4478 
   1   1.0000     -13.920344      -378.7918 
   2   1.0000      -9.839593      -267.7489 
   3   1.0000      -2.109454       -57.4012 
   4   1.0000      -1.085813       -29.5465 
   5   1.0000      -1.085324       -29.5332 
   6   1.0000      -1.083879       -29.4938 
   7   1.0000      -0.752518       -20.4771 
   8   1.0000      -0.318466        -8.6659 
   9   1.0000      -0.260812        -7.0971 
  10   1.0000      -0.246113        -6.6971 
  11   1.0000      -0.199892        -5.4393 
  12   0.0000      -0.079844        -2.1727 
  13   0.0000      -0.013744        -0.3740 
  14   0.0000      -0.010044        -0.2733 
  15   0.0000       0.000287         0.0078 
  16   0.0000       0.007644         0.2080 
  17   0.0000       0.017153         0.4667 
  18   0.0000       0.017725         0.4823 
  19   0.0000       0.023167         0.6304 
  20   0.0000       0.025762         0.7010 
  21   0.0000       0.026176         0.7123 
  22   0.0000       0.032294         0.8788 
  23   0.0000       0.035807         0.9744 
  24   0.0000       0.036864         1.0031 
  25   0.0000       0.039336         1.0704 
  26   0.0000       0.041060         1.1173 
  27   0.0000       0.052040         1.4161 
  28   0.0000       0.057800         1.5728 
  29   0.0000       0.058458         1.5907 
  30   0.0000       0.059108         1.6084 
  31   0.0000       0.067186         1.8282 
  32   0.0000       0.068215         1.8562 
  33   0.0000       0.074564         2.0290 
  34   0.0000       0.076271         2.0754 
  35   0.0000       0.077415         2.1066 
  36   0.0000       0.083593         2.2747 
  37   0.0000       0.084058         2.2873 
  38   0.0000       0.089646         2.4394 
  39   0.0000       0.090439         2.4610 
  40   0.0000       0.098521         2.6809 
  41   0.0000       0.098566         2.6821 
  42   0.0000       0.106242         2.8910 
  43   0.0000       0.109881         2.9900 
  44   0.0000       0.111538         3.0351 
  45   0.0000       0.116339         3.1657 
  46   0.0000       0.125313         3.4099 
  47   0.0000       0.127537         3.4705 
  48   0.0000       0.132599         3.6082 
  49   0.0000       0.133811         3.6412 
  50   0.0000       0.135433         3.6853 
  51   0.0000       0.136409         3.7119 
  52   0.0000       0.137602         3.7443 
  53   0.0000       0.139504         3.7961 
  54   0.0000       0.144785         3.9398 
  55   0.0000       0.146012         3.9732 
  56   0.0000       0.156655         4.2628 
  57   0.0000       0.164919         4.4877 
  58   0.0000       0.171015         4.6536 
  59   0.0000       0.175471         4.7748 
  60   0.0000       0.181251         4.9321 
  61   0.0000       0.183882         5.0037 
  62   0.0000       0.192970         5.2510 
  63   0.0000       0.199122         5.4184 
  64   0.0000       0.206573         5.6211 
  65   0.0000       0.210510         5.7283 
  66   0.0000       0.216401         5.8886 
  67   0.0000       0.230501         6.2723 
  68   0.0000       0.238813         6.4984 
  69   0.0000       0.249354         6.7853 
  70   0.0000       0.250146         6.8068 
  71   0.0000       0.261319         7.1109 
  72   0.0000       0.262534         7.1439 
  73   0.0000       0.266398         7.2491 
  74   0.0000       0.275132         7.4867 
  75   0.0000       0.276752         7.5308 
  76   0.0000       0.286459         7.7950 
  77   0.0000       0.289670         7.8823 
  78   0.0000       0.292804         7.9676 
  79   0.0000       0.298424         8.1205 
  80   0.0000       0.307904         8.3785 
  81   0.0000       0.326271         8.8783 
  82   0.0000       0.332317         9.0428 
  83   0.0000       0.346469         9.4279 
  84   0.0000       0.366294         9.9674 
  85   0.0000       0.368687        10.0325 
  86   0.0000       0.378797        10.3076 
  87   0.0000       0.388977        10.5846 
  88   0.0000       0.393997        10.7212 
  89   0.0000       0.399152        10.8615 
  90   0.0000       0.405004        11.0207 
  91   0.0000       0.409289        11.1373 
  92   0.0000       0.424355        11.5473 
  93   0.0000       0.427293        11.6272 
  94   0.0000       0.427674        11.6376 
  95   0.0000       0.443332        12.0637 
  96   0.0000       0.452030        12.3004 
  97   0.0000       0.462367        12.5816 
  98   0.0000       0.464311        12.6345 
  99   0.0000       0.473393        12.8817 
 100   0.0000       0.483357        13.1528 
 101   0.0000       0.505382        13.7521 
 102   0.0000       0.517119        14.0715 
 103   0.0000       0.519571        14.1383 
 104   0.0000       0.531395        14.4600 
 105   0.0000       0.543140        14.7796 
 106   0.0000       0.552269        15.0280 
 107   0.0000       0.558368        15.1940 
 108   0.0000       0.566455        15.4140 
 109   0.0000       0.571323        15.5465 
 110   0.0000       0.571620        15.5546 
 111   0.0000       0.574627        15.6364 
 112   0.0000       0.590376        16.0650 
 113   0.0000       0.594427        16.1752 
 114   0.0000       0.610696        16.6179 
 115   0.0000       0.613894        16.7049 
 116   0.0000       0.620545        16.8859 
 117   0.0000       0.628399        17.0996 
 118   0.0000       0.638006        17.3610 
 119   0.0000       0.639256        17.3950 
 120   0.0000       0.646736        17.5986 
 121   0.0000       0.654809        17.8183 
 122   0.0000       0.658257        17.9121 
 123   0.0000       0.665185        18.1006 
 124   0.0000       0.674192        18.3457 
 125   0.0000       0.676950        18.4207 
 126   0.0000       0.683345        18.5948 
 127   0.0000       0.688313        18.7300 
 128   0.0000       0.697914        18.9912 
 129   0.0000       0.699332        19.0298 
 130   0.0000       0.707708        19.2577 
 131   0.0000       0.751564        20.4511 
 132   0.0000       0.765976        20.8433 
 133   0.0000       0.782588        21.2953 
 134   0.0000       0.790863        21.5205 
 135   0.0000       0.804276        21.8855 
 136   0.0000       0.828355        22.5407 
 137   0.0000       0.837459        22.7884 
 138   0.0000       0.847502        23.0617 
 139   0.0000       0.848475        23.0882 
 140   0.0000       0.883088        24.0300 
 141   0.0000       0.887715        24.1559 
 142   0.0000       0.893407        24.3108 
 143   0.0000       0.902708        24.5639 
 144   0.0000       0.911765        24.8104 
 145   0.0000       0.919303        25.0155 
 146   0.0000       0.932525        25.3753 
 147   0.0000       0.946958        25.7680 
 148   0.0000       0.969038        26.3689 
 149   0.0000       0.970971        26.4215 
 150   0.0000       0.979410        26.6511 
 151   0.0000       0.993122        27.0242 
 152   0.0000       1.013349        27.5746 
 153   0.0000       1.015907        27.6442 
 154   0.0000       1.022682        27.8286 
 155   0.0000       1.032379        28.0925 
 156   0.0000       1.042994        28.3813 
 157   0.0000       1.054203        28.6863 
 158   0.0000       1.079007        29.3613 
 159   0.0000       1.102203        29.9925 
 160   0.0000       1.111232        30.2382 
 161   0.0000       1.117583        30.4110 
 162   0.0000       1.123404        30.5694 
 163   0.0000       1.133733        30.8505 
 164   0.0000       1.158994        31.5378 
 165   0.0000       1.194020        32.4909 
 166   0.0000       1.234090        33.5813 
 167   0.0000       1.264856        34.4185 
 168   0.0000       1.265952        34.4483 
 169   0.0000       1.281522        34.8720 
 170   0.0000       1.305304        35.5191 
 171   0.0000       1.376893        37.4672 
 172   0.0000       1.385500        37.7014 
 173   0.0000       1.406408        38.2703 
 174   0.0000       1.451561        39.4990 
 175   0.0000       1.452612        39.5276 
 176   0.0000       1.483580        40.3703 
 177   0.0000       1.487682        40.4819 
 178   0.0000       1.502971        40.8979 
 179   0.0000       1.521033        41.3894 
 180   0.0000       1.523065        41.4447 
 181   0.0000       1.524240        41.4767 
 182   0.0000       1.560227        42.4559 
 183   0.0000       1.584526        43.1171 
 184   0.0000       1.592431        43.3323 
 185   0.0000       1.614700        43.9382 
 186   0.0000       1.628543        44.3149 
 187   0.0000       1.639185        44.6045 
 188   0.0000       1.650289        44.9066 
 189   0.0000       1.698073        46.2069 
 190   0.0000       1.703327        46.3499 
 191   0.0000       1.740523        47.3620 
 192   0.0000       1.760187        47.8971 
 193   0.0000       1.793266        48.7973 
 194   0.0000       1.833397        49.8893 
 195   0.0000       1.931641        52.5626 
 196   0.0000       1.973641        53.7055 
 197   0.0000       2.042546        55.5805 
 198   0.0000       2.051174        55.8153 
 199   0.0000       2.136025        58.1242 
 200   0.0000       2.158414        58.7334 
 201   0.0000       2.161378        58.8141 
 202   0.0000       2.196123        59.7596 
 203   0.0000       2.220846        60.4323 
 204   0.0000       2.226729        60.5924 
 205   0.0000       2.242441        61.0199 
 206   0.0000       2.288543        62.2744 
 207   0.0000       2.317298        63.0569 
 208   0.0000       2.364410        64.3389 
 209   0.0000       2.378881        64.7327 
 210   0.0000       2.451365        66.7050 
 211   0.0000       2.471608        67.2559 
 212   0.0000       2.621073        71.3230 
 213   0.0000       2.675501        72.8041 
 214   0.0000       2.765660        75.2574 
 215   0.0000       2.773135        75.4608 
 216   0.0000       3.059950        83.2655 
 217   0.0000       3.064824        83.3981 
 218   0.0000       3.104682        84.4827 
 219   0.0000       3.177342        86.4599 
 220   0.0000       3.180178        86.5370 
 221   0.0000       3.226253        87.7908 
 222   0.0000       3.285810        89.4114 
 223   0.0000       3.405071        92.6567 
 224   0.0000       3.780973       102.8855 
 225   0.0000       3.865080       105.1742 
 226   0.0000       3.872988       105.3894 
 227   0.0000       3.979597       108.2903 
 228   0.0000       3.980509       108.3152 
 229   0.0000       4.013554       109.2144 
 230   0.0000       4.013865       109.2228 
 231   0.0000       4.048268       110.1590 
 232   0.0000       4.071231       110.7838 
 233   0.0000       4.084856       111.1546 
 234   0.0000       4.095193       111.4359 
 235   0.0000       4.157361       113.1275 
 236   0.0000       4.164787       113.3296 
 237   0.0000       4.213356       114.6512 
 238   0.0000       4.228538       115.0644 
 239   0.0000       4.253037       115.7310 
 240   0.0000       4.274815       116.3236 
 241   0.0000       4.458441       121.3204 
 242   0.0000       4.481889       121.9584 
 243   0.0000       4.529901       123.2649 
 244   0.0000       4.586507       124.8052 
 245   0.0000       4.595560       125.0516 
 246   0.0000       4.723872       128.5431 
 247   0.0000       4.753450       129.3480 
 248   0.0000       4.782050       130.1262 
 249   0.0000       4.783417       130.1634 
 250   0.0000       4.794993       130.4784 
 251   0.0000       4.866069       132.4125 
 252   0.0000       4.906741       133.5192 
 253   0.0000       4.915249       133.7507 
 254   0.0000       5.023330       136.6918 
 255   0.0000       5.058093       137.6377 
 256   0.0000       5.141879       139.9177 
 257   0.0000       5.232409       142.3811 
 258   0.0000       5.268420       143.3610 
 259   0.0000       5.302399       144.2856 
 260   0.0000       5.342495       145.3767 
 261   0.0000       5.385102       146.5361 
 262   0.0000       5.591639       152.1562 
 263   0.0000       5.622016       152.9828 
 264   0.0000       5.634305       153.3172 
 265   0.0000       5.658666       153.9801 
 266   0.0000       5.699712       155.0971 
 267   0.0000       5.711380       155.4146 
 268   0.0000       5.973112       162.5366 
 269   0.0000       6.010191       163.5456 
 270   0.0000       6.089469       165.7029 
 271   0.0000       6.282907       170.9666 
 272   0.0000       6.332944       172.3282 
 273   0.0000       6.345749       172.6766 
 274   0.0000       6.377228       173.5332 
 275   0.0000       6.513516       177.2418 
 276   0.0000       6.662943       181.3079 
 277   0.0000       6.759563       183.9370 
 278   0.0000       6.839712       186.1180 
 279   0.0000       6.906488       187.9351 
 280   0.0000       6.980758       189.9561 
 281   0.0000       7.128725       193.9825 
 282   0.0000       7.232890       196.8169 
 283   0.0000       7.826104       212.9591 
 284   0.0000       8.129965       221.2276 
 285   0.0000       8.279735       225.3031 
 286   0.0000       8.322280       226.4608 
 287   0.0000       9.193624       250.1712 
 288   0.0000       9.336583       254.0614 
 289   0.0000       9.773128       265.9403 
 290   0.0000      10.179675       277.0030 
 291   0.0000      10.209311       277.8095 
 292   0.0000      10.236007       278.5359 
 293   0.0000      10.242839       278.7218 
 294   0.0000      10.357217       281.8342 
 295   0.0000      10.456439       284.5342 
 296   0.0000      10.461375       284.6685 
 297   0.0000      10.468602       284.8651 
 298   0.0000      10.533099       286.6202 
 299   0.0000      10.625901       289.1455 
 300   0.0000      10.626533       289.1627 
 301   0.0000      10.845745       295.1277 
 302   0.0000      10.846954       295.1606 
 303   0.0000      10.890271       296.3393 
 304   0.0000      11.066732       301.1411 
 305   0.0000      11.082673       301.5749 
 306   0.0000      11.365045       309.2586 
 307   0.0000      11.408959       310.4536 
 308   0.0000      11.468517       312.0742 
 309   0.0000      11.468964       312.0864 
 310   0.0000      11.500449       312.9431 
 311   0.0000      11.553873       314.3969 
 312   0.0000      11.580902       315.1324 
 313   0.0000      11.586895       315.2954 
 314   0.0000      11.625742       316.3525 
 315   0.0000      11.657686       317.2218 
 316   0.0000      11.722024       318.9725 
 317   0.0000      11.736326       319.3617 
 318   0.0000      11.746551       319.6399 
 319   0.0000      11.927951       324.5761 
 320   0.0000      11.931531       324.6735 
 321   0.0000      12.021111       327.1110 
 322   0.0000      12.022939       327.1608 
 323   0.0000      12.118041       329.7486 
 324   0.0000      12.133140       330.1595 
 325   0.0000      12.478320       339.5523 
 326   0.0000      12.507861       340.3562 
 327   0.0000      12.654085       344.3351 
 328   0.0000      12.682948       345.1206 
 329   0.0000      12.858229       349.8902 
 330   0.0000      12.984442       353.3246 
 331   0.0000      12.986081       353.3692 
 332   0.0000      13.540747       368.4625 
 333   0.0000      13.718595       373.3019 
 334   0.0000      13.742057       373.9404 
 335   0.0000      14.387800       391.5119 
 336   0.0000      14.409802       392.1106 
 337   0.0000      14.600042       397.2873 
 338   0.0000      14.616030       397.7224 
 339   0.0000      14.670233       399.1973 
 340   0.0000      15.018856       408.6839 
 341   0.0000      15.031429       409.0260 
 342   0.0000      15.386440       418.6863 
 343   0.0000      15.403865       419.1605 
 344   0.0000      15.576122       423.8478 
 345   0.0000      15.825934       430.6456 
 346   0.0000      15.881625       432.1610 
 347   0.0000      16.007346       435.5820 
 348   0.0000      16.743042       455.6013 
 349   0.0000      16.790694       456.8980 
 350   0.0000      16.996437       462.4966 
 351   0.0000      17.073305       464.5883 
 352   0.0000      17.697980       481.5865 
 353   0.0000      17.723254       482.2742 
 354   0.0000      17.738568       482.6910 
 355   0.0000      18.671837       508.0865 
 356   0.0000      19.086436       519.3683 
 357   0.0000      19.125342       520.4270 
 358   0.0000      21.474590       584.3533 
 359   0.0000      24.030312       653.8980 
 360   0.0000      26.150920       711.6027 
 361   0.0000      26.316867       716.1184 
 362   0.0000      27.939127       760.2623 
 363   0.0000      31.965699       869.8309 
 364   0.0000      32.032844       871.6580 
 365   0.0000      32.915406       895.6737 
 366   0.0000      32.924727       895.9274 
 367   0.0000      34.432278       936.9499 
 368   0.0000      47.783645      1300.2591 
 369   0.0000      47.837568      1301.7264 
 370   0.0000      48.023452      1306.7846 
 371   0.0000      48.071872      1308.1021 
 372   0.0000      48.964696      1332.3971 
 373   0.0000      74.223778      2019.7317 
 374   0.0000     104.149052      2834.0398 

                 SPIN DOWN ORBITALS
  NO   OCC          E(Eh)            E(eV) 
   0   1.0000     -37.941760     -1032.4478 
   1   1.0000     -13.920344      -378.7918 
   2   1.0000      -9.839593      -267.7489 
   3   1.0000      -2.109454       -57.4012 
   4   1.0000      -1.085813       -29.5465 
   5   1.0000      -1.085324       -29.5332 
   6   1.0000      -1.083879       -29.4938 
   7   1.0000      -0.752518       -20.4771 
   8   1.0000      -0.318466        -8.6659 
   9   1.0000      -0.260812        -7.0971 
  10   1.0000      -0.246113        -6.6971 
  11   1.0000      -0.199892        -5.4393 
  12   0.0000      -0.079844        -2.1727 
  13   0.0000      -0.013744        -0.3740 
  14   0.0000      -0.010044        -0.2733 
  15   0.0000       0.000287         0.0078 
  16   0.0000       0.007644         0.2080 
  17   0.0000       0.017153         0.4667 
  18   0.0000       0.017725         0.4823 
  19   0.0000       0.023167         0.6304 
  20   0.0000       0.025762         0.7010 
  21   0.0000       0.026176         0.7123 
  22   0.0000       0.032294         0.8788 
  23   0.0000       0.035807         0.9744 
  24   0.0000       0.036864         1.0031 
  25   0.0000       0.039336         1.0704 
  26   0.0000       0.041060         1.1173 
  27   0.0000       0.052040         1.4161 
  28   0.0000       0.057800         1.5728 
  29   0.0000       0.058458         1.5907 
  30   0.0000       0.059108         1.6084 
  31   0.0000       0.067186         1.8282 
  32   0.0000       0.068215         1.8562 
  33   0.0000       0.074564         2.0290 
  34   0.0000       0.076271         2.0754 
  35   0.0000       0.077415         2.1066 
  36   0.0000       0.083593         2.2747 
  37   0.0000       0.084058         2.2873 
  38   0.0000       0.089646         2.4394 
  39   0.0000       0.090439         2.4610 
  40   0.0000       0.098521         2.6809 
  41   0.0000       0.098566         2.6821 
  42   0.0000       0.106242         2.8910 
  43   0.0000       0.109881         2.9900 
  44   0.0000       0.111538         3.0351 
  45   0.0000       0.116339         3.1657 
  46   0.0000       0.125313         3.4099 
  47   0.0000       0.127537         3.4705 
  48   0.0000       0.132599         3.6082 
  49   0.0000       0.133811         3.6412 
  50   0.0000       0.135433         3.6853 
  51   0.0000       0.136409         3.7119 
  52   0.0000       0.137602         3.7443 
  53   0.0000       0.139504         3.7961 
  54   0.0000       0.144785         3.9398 
  55   0.0000       0.146012         3.9732 
  56   0.0000       0.156655         4.2628 
  57   0.0000       0.164919         4.4877 
  58   0.0000       0.171015         4.6536 
  59   0.0000       0.175471         4.7748 
  60   0.0000       0.181251         4.9321 
  61   0.0000       0.183882         5.0037 
  62   0.0000       0.192970         5.2510 
  63   0.0000       0.199122         5.4184 
  64   0.0000       0.206573         5.6211 
  65   0.0000       0.210510         5.7283 
  66   0.0000       0.216401         5.8886 
  67   0.0000       0.230501         6.2723 
  68   0.0000       0.238813         6.4984 
  69   0.0000       0.249354         6.7853 
  70   0.0000       0.250146         6.8068 
  71   0.0000       0.261319         7.1109 
  72   0.0000       0.262534         7.1439 
  73   0.0000       0.266398         7.2491 
  74   0.0000       0.275132         7.4867 
  75   0.0000       0.276752         7.5308 
  76   0.0000       0.286459         7.7950 
  77   0.0000       0.289670         7.8823 
  78   0.0000       0.292804         7.9676 
  79   0.0000       0.298424         8.1205 
  80   0.0000       0.307904         8.3785 
  81   0.0000       0.326271         8.8783 
  82   0.0000       0.332317         9.0428 
  83   0.0000       0.346469         9.4279 
  84   0.0000       0.366294         9.9674 
  85   0.0000       0.368687        10.0325 
  86   0.0000       0.378797        10.3076 
  87   0.0000       0.388977        10.5846 
  88   0.0000       0.393997        10.7212 
  89   0.0000       0.399152        10.8615 
  90   0.0000       0.405004        11.0207 
  91   0.0000       0.409289        11.1373 
  92   0.0000       0.424355        11.5473 
  93   0.0000       0.427293        11.6272 
  94   0.0000       0.427674        11.6376 
  95   0.0000       0.443332        12.0637 
  96   0.0000       0.452030        12.3004 
  97   0.0000       0.462367        12.5816 
  98   0.0000       0.464311        12.6345 
  99   0.0000       0.473393        12.8817 
 100   0.0000       0.483357        13.1528 
 101   0.0000       0.505382        13.7521 
 102   0.0000       0.517119        14.0715 
 103   0.0000       0.519571        14.1383 
 104   0.0000       0.531395        14.4600 
 105   0.0000       0.543140        14.7796 
 106   0.0000       0.552269        15.0280 
 107   0.0000       0.558368        15.1940 
 108   0.0000       0.566455        15.4140 
 109   0.0000       0.571323        15.5465 
 110   0.0000       0.571620        15.5546 
 111   0.0000       0.574627        15.6364 
 112   0.0000       0.590376        16.0650 
 113   0.0000       0.594427        16.1752 
 114   0.0000       0.610696        16.6179 
 115   0.0000       0.613894        16.7049 
 116   0.0000       0.620545        16.8859 
 117   0.0000       0.628399        17.0996 
 118   0.0000       0.638006        17.3610 
 119   0.0000       0.639256        17.3950 
 120   0.0000       0.646736        17.5986 
 121   0.0000       0.654809        17.8183 
 122   0.0000       0.658257        17.9121 
 123   0.0000       0.665185        18.1006 
 124   0.0000       0.674192        18.3457 
 125   0.0000       0.676950        18.4207 
 126   0.0000       0.683345        18.5948 
 127   0.0000       0.688313        18.7300 
 128   0.0000       0.697914        18.9912 
 129   0.0000       0.699332        19.0298 
 130   0.0000       0.707708        19.2577 
 131   0.0000       0.751564        20.4511 
 132   0.0000       0.765976        20.8433 
 133   0.0000       0.782588        21.2953 
 134   0.0000       0.790863        21.5205 
 135   0.0000       0.804276        21.8855 
 136   0.0000       0.828355        22.5407 
 137   0.0000       0.837459        22.7884 
 138   0.0000       0.847502        23.0617 
 139   0.0000       0.848475        23.0882 
 140   0.0000       0.883088        24.0300 
 141   0.0000       0.887715        24.1559 
 142   0.0000       0.893407        24.3108 
 143   0.0000       0.902708        24.5639 
 144   0.0000       0.911765        24.8104 
 145   0.0000       0.919303        25.0155 
 146   0.0000       0.932525        25.3753 
 147   0.0000       0.946958        25.7680 
 148   0.0000       0.969038        26.3689 
 149   0.0000       0.970971        26.4215 
 150   0.0000       0.979410        26.6511 
 151   0.0000       0.993122        27.0242 
 152   0.0000       1.013349        27.5746 
 153   0.0000       1.015907        27.6442 
 154   0.0000       1.022682        27.8286 
 155   0.0000       1.032379        28.0925 
 156   0.0000       1.042994        28.3813 
 157   0.0000       1.054203        28.6863 
 158   0.0000       1.079007        29.3613 
 159   0.0000       1.102203        29.9925 
 160   0.0000       1.111232        30.2382 
 161   0.0000       1.117583        30.4110 
 162   0.0000       1.123404        30.5694 
 163   0.0000       1.133733        30.8505 
 164   0.0000       1.158994        31.5378 
 165   0.0000       1.194020        32.4909 
 166   0.0000       1.234090        33.5813 
 167   0.0000       1.264856        34.4185 
 168   0.0000       1.265952        34.4483 
 169   0.0000       1.281522        34.8720 
 170   0.0000       1.305304        35.5191 
 171   0.0000       1.376893        37.4672 
 172   0.0000       1.385500        37.7014 
 173   0.0000       1.406408        38.2703 
 174   0.0000       1.451561        39.4990 
 175   0.0000       1.452612        39.5276 
 176   0.0000       1.483580        40.3703 
 177   0.0000       1.487682        40.4819 
 178   0.0000       1.502971        40.8979 
 179   0.0000       1.521033        41.3894 
 180   0.0000       1.523065        41.4447 
 181   0.0000       1.524240        41.4767 
 182   0.0000       1.560227        42.4559 
 183   0.0000       1.584526        43.1171 
 184   0.0000       1.592431        43.3323 
 185   0.0000       1.614700        43.9382 
 186   0.0000       1.628543        44.3149 
 187   0.0000       1.639185        44.6045 
 188   0.0000       1.650289        44.9066 
 189   0.0000       1.698073        46.2069 
 190   0.0000       1.703327        46.3499 
 191   0.0000       1.740523        47.3620 
 192   0.0000       1.760187        47.8971 
 193   0.0000       1.793266        48.7973 
 194   0.0000       1.833397        49.8893 
 195   0.0000       1.931641        52.5626 
 196   0.0000       1.973641        53.7055 
 197   0.0000       2.042546        55.5805 
 198   0.0000       2.051174        55.8153 
 199   0.0000       2.136025        58.1242 
 200   0.0000       2.158414        58.7334 
 201   0.0000       2.161378        58.8141 
 202   0.0000       2.196123        59.7596 
 203   0.0000       2.220846        60.4323 
 204   0.0000       2.226729        60.5924 
 205   0.0000       2.242441        61.0199 
 206   0.0000       2.288543        62.2744 
 207   0.0000       2.317298        63.0569 
 208   0.0000       2.364410        64.3389 
 209   0.0000       2.378881        64.7327 
 210   0.0000       2.451365        66.7050 
 211   0.0000       2.471608        67.2559 
 212   0.0000       2.621073        71.3230 
 213   0.0000       2.675501        72.8041 
 214   0.0000       2.765660        75.2574 
 215   0.0000       2.773135        75.4608 
 216   0.0000       3.059950        83.2655 
 217   0.0000       3.064824        83.3981 
 218   0.0000       3.104682        84.4827 
 219   0.0000       3.177342        86.4599 
 220   0.0000       3.180178        86.5370 
 221   0.0000       3.226253        87.7908 
 222   0.0000       3.285810        89.4114 
 223   0.0000       3.405071        92.6567 
 224   0.0000       3.780973       102.8855 
 225   0.0000       3.865080       105.1742 
 226   0.0000       3.872988       105.3894 
 227   0.0000       3.979597       108.2903 
 228   0.0000       3.980509       108.3152 
 229   0.0000       4.013554       109.2144 
 230   0.0000       4.013865       109.2228 
 231   0.0000       4.048268       110.1590 
 232   0.0000       4.071231       110.7838 
 233   0.0000       4.084856       111.1546 
 234   0.0000       4.095193       111.4359 
 235   0.0000       4.157361       113.1275 
 236   0.0000       4.164787       113.3296 
 237   0.0000       4.213356       114.6512 
 238   0.0000       4.228538       115.0644 
 239   0.0000       4.253037       115.7310 
 240   0.0000       4.274815       116.3236 
 241   0.0000       4.458441       121.3204 
 242   0.0000       4.481889       121.9584 
 243   0.0000       4.529901       123.2649 
 244   0.0000       4.586507       124.8052 
 245   0.0000       4.595560       125.0516 
 246   0.0000       4.723872       128.5431 
 247   0.0000       4.753450       129.3480 
 248   0.0000       4.782050       130.1262 
 249   0.0000       4.783417       130.1634 
 250   0.0000       4.794993       130.4784 
 251   0.0000       4.866069       132.4125 
 252   0.0000       4.906741       133.5192 
 253   0.0000       4.915249       133.7507 
 254   0.0000       5.023330       136.6918 
 255   0.0000       5.058093       137.6377 
 256   0.0000       5.141879       139.9177 
 257   0.0000       5.232409       142.3811 
 258   0.0000       5.268420       143.3610 
 259   0.0000       5.302399       144.2856 
 260   0.0000       5.342495       145.3767 
 261   0.0000       5.385102       146.5361 
 262   0.0000       5.591639       152.1562 
 263   0.0000       5.622016       152.9828 
 264   0.0000       5.634305       153.3172 
 265   0.0000       5.658666       153.9801 
 266   0.0000       5.699712       155.0971 
 267   0.0000       5.711380       155.4146 
 268   0.0000       5.973112       162.5366 
 269   0.0000       6.010191       163.5456 
 270   0.0000       6.089469       165.7029 
 271   0.0000       6.282907       170.9666 
 272   0.0000       6.332944       172.3282 
 273   0.0000       6.345749       172.6766 
 274   0.0000       6.377228       173.5332 
 275   0.0000       6.513516       177.2418 
 276   0.0000       6.662943       181.3079 
 277   0.0000       6.759563       183.9370 
 278   0.0000       6.839712       186.1180 
 279   0.0000       6.906488       187.9351 
 280   0.0000       6.980758       189.9561 
 281   0.0000       7.128725       193.9825 
 282   0.0000       7.232890       196.8169 
 283   0.0000       7.826104       212.9591 
 284   0.0000       8.129965       221.2276 
 285   0.0000       8.279735       225.3031 
 286   0.0000       8.322280       226.4608 
 287   0.0000       9.193624       250.1712 
 288   0.0000       9.336583       254.0614 
 289   0.0000       9.773128       265.9403 
 290   0.0000      10.179675       277.0030 
 291   0.0000      10.209311       277.8095 
 292   0.0000      10.236007       278.5359 
 293   0.0000      10.242839       278.7218 
 294   0.0000      10.357217       281.8342 
 295   0.0000      10.456439       284.5342 
 296   0.0000      10.461375       284.6685 
 297   0.0000      10.468602       284.8651 
 298   0.0000      10.533099       286.6202 
 299   0.0000      10.625901       289.1455 
 300   0.0000      10.626533       289.1627 
 301   0.0000      10.845745       295.1277 
 302   0.0000      10.846954       295.1606 
 303   0.0000      10.890271       296.3393 
 304   0.0000      11.066732       301.1411 
 305   0.0000      11.082673       301.5749 
 306   0.0000      11.365045       309.2586 
 307   0.0000      11.408959       310.4536 
 308   0.0000      11.468517       312.0742 
 309   0.0000      11.468964       312.0864 
 310   0.0000      11.500449       312.9431 
 311   0.0000      11.553873       314.3969 
 312   0.0000      11.580902       315.1324 
 313   0.0000      11.586895       315.2954 
 314   0.0000      11.625742       316.3525 
 315   0.0000      11.657686       317.2218 
 316   0.0000      11.722024       318.9725 
 317   0.0000      11.736326       319.3617 
 318   0.0000      11.746551       319.6399 
 319   0.0000      11.927951       324.5761 
 320   0.0000      11.931531       324.6735 
 321   0.0000      12.021111       327.1110 
 322   0.0000      12.022939       327.1608 
 323   0.0000      12.118041       329.7486 
 324   0.0000      12.133140       330.1595 
 325   0.0000      12.478320       339.5523 
 326   0.0000      12.507861       340.3562 
 327   0.0000      12.654085       344.3351 
 328   0.0000      12.682948       345.1206 
 329   0.0000      12.858229       349.8902 
 330   0.0000      12.984442       353.3246 
 331   0.0000      12.986081       353.3692 
 332   0.0000      13.540747       368.4625 
 333   0.0000      13.718595       373.3019 
 334   0.0000      13.742057       373.9404 
 335   0.0000      14.387800       391.5119 
 336   0.0000      14.409802       392.1106 
 337   0.0000      14.600042       397.2873 
 338   0.0000      14.616030       397.7224 
 339   0.0000      14.670233       399.1973 
 340   0.0000      15.018856       408.6839 
 341   0.0000      15.031429       409.0260 
 342   0.0000      15.386440       418.6863 
 343   0.0000      15.403865       419.1605 
 344   0.0000      15.576122       423.8478 
 345   0.0000      15.825934       430.6456 
 346   0.0000      15.881625       432.1610 
 347   0.0000      16.007346       435.5820 
 348   0.0000      16.743042       455.6013 
 349   0.0000      16.790694       456.8980 
 350   0.0000      16.996437       462.4966 
 351   0.0000      17.073305       464.5883 
 352   0.0000      17.697980       481.5865 
 353   0.0000      17.723254       482.2742 
 354   0.0000      17.738568       482.6910 
 355   0.0000      18.671837       508.0865 
 356   0.0000      19.086436       519.3683 
 357   0.0000      19.125342       520.4270 
 358   0.0000      21.474590       584.3533 
 359   0.0000      24.030312       653.8980 
 360   0.0000      26.150920       711.6027 
 361   0.0000      26.316867       716.1184 
 362   0.0000      27.939127       760.2623 
 363   0.0000      31.965699       869.8309 
 364   0.0000      32.032844       871.6580 
 365   0.0000      32.915406       895.6737 
 366   0.0000      32.924727       895.9274 
 367   0.0000      34.432278       936.9499 
 368   0.0000      47.783645      1300.2591 
 369   0.0000      47.837568      1301.7264 
 370   0.0000      48.023452      1306.7846 
 371   0.0000      48.071872      1308.1021 
 372   0.0000      48.964696      1332.3971 
 373   0.0000      74.223778      2019.7317 
 374   0.0000     104.149052      2834.0398 

                    ********************************
                    * MULLIKEN POPULATION ANALYSIS *
                    ********************************

--------------------------------------------
MULLIKEN ATOMIC CHARGES AND SPIN POPULATIONS
--------------------------------------------
   0 C :   -0.258032    0.000000
   1 N :   -0.427449   -0.000000
   2 Na:    0.685481    0.000000
Sum of atomic charges         :   -0.0000000
Sum of atomic spin populations:    0.0000000

-----------------------------------------------------
MULLIKEN REDUCED ORBITAL CHARGES AND SPIN POPULATIONS
-----------------------------------------------------
CHARGE
  0 C s       :     3.677396  s :     3.677396
      pz      :     0.740911  p :     2.525389
      px      :     1.017673
      py      :     0.766804
      dz2     :     0.003481  d :     0.053806
      dxz     :     0.022443
      dyz     :     0.002392
      dx2y2   :     0.012923
      dxy     :     0.012567
      f0      :     0.000961  f :     0.002908
      f+1     :     0.000271
      f-1     :     0.000022
      f+2     :     0.000803
      f-2     :     0.001019
      f+3     :    -0.000112
      f-3     :    -0.000054
      g0      :    -0.000017  g :    -0.000882
      g+1     :     0.000094
      g-1     :     0.000029
      g+2     :    -0.000104
      g-2     :    -0.000129
      g+3     :    -0.000079
      g-3     :     0.000236
      g+4     :    -0.000214
      g-4     :    -0.000698
      h0      :    -0.000058  h :    -0.000584
      h+1     :    -0.000012
      h-1     :    -0.000022
      h+2     :     0.000003
      h-2     :    -0.000064
      h+3     :    -0.000078
      h-3     :    -0.000054
      h+4     :    -0.000079
      h-4     :    -0.000000
      h+5     :    -0.000041
      h-5     :    -0.000179
  1 N s       :     3.942756  s :     3.942756
      pz      :     1.176773  p :     3.441365
      px      :     1.167850
      py      :     1.096742
      dz2     :     0.003381  d :     0.051608
      dxz     :     0.010567
      dyz     :     0.004539
      dx2y2   :     0.019697
      dxy     :     0.013424
      f0      :    -0.000110  f :    -0.002787
      f+1     :    -0.000344
      f-1     :     0.000235
      f+2     :    -0.000331
      f-2     :     0.000032
      f+3     :     0.000096
      f-3     :    -0.002366
      g0      :    -0.000111  g :    -0.004096
      g+1     :     0.000147
      g-1     :    -0.000545
      g+2     :    -0.000356
      g-2     :    -0.000246
      g+3     :    -0.000417
      g-3     :    -0.000262
      g+4     :    -0.002045
      g-4     :    -0.000260
      h0      :    -0.000097  h :    -0.001398
      h+1     :    -0.000022
      h-1     :    -0.000043
      h+2     :    -0.000136
      h-2     :    -0.000032
      h+3     :    -0.000112
      h-3     :    -0.000164
      h+4     :    -0.000091
      h-4     :    -0.000122
      h+5     :     0.000026
      h-5     :    -0.000605
  2 Nas       :     4.112295  s :     4.112295
      pz      :     2.026728  p :     6.139839
      px      :     2.040620
      py      :     2.072491
      dz2     :     0.009673  d :     0.053807
      dxz     :     0.002717
      dyz     :     0.010175
      dx2y2   :     0.015416
      dxy     :     0.015826
      f0      :     0.000638  f :     0.007437
      f+1     :     0.000553
      f-1     :     0.001932
      f+2     :     0.000454
      f-2     :     0.000454
      f+3     :     0.002406
      f-3     :     0.001002
      g0      :     0.000169  g :     0.001141
      g+1     :     0.000023
      g-1     :     0.000152
      g+2     :     0.000114
      g-2     :     0.000207
      g+3     :     0.000126
      g-3     :     0.000008
      g+4     :     0.000156
      g-4     :     0.000186

SPIN
  0 C s       :     0.000000  s :     0.000000
      pz      :    -0.000000  p :    -0.000000
      px      :    -0.000000
      py      :    -0.000000
      dz2     :    -0.000000  d :    -0.000000
      dxz     :    -0.000000
      dyz     :    -0.000000
      dx2y2   :    -0.000000
      dxy     :    -0.000000
      f0      :     0.000000  f :    -0.000000
      f+1     :    -0.000000
      f-1     :    -0.000000
      f+2     :     0.000000
      f-2     :    -0.000000
      f+3     :    -0.000000
      f-3     :    -0.000000
      g0      :    -0.000000  g :    -0.000000
      g+1     :     0.000000
      g-1     :     0.000000
      g+2     :    -0.000000
      g-2     :    -0.000000
      g+3     :    -0.000000
      g-3     :     0.000000
      g+4     :    -0.000000
      g-4     :    -0.000000
      h0      :    -0.000000  h :    -0.000000
      h+1     :     0.000000
      h-1     :    -0.000000
      h+2     :     0.000000
      h-2     :    -0.000000
      h+3     :    -0.000000
      h-3     :    -0.000000
      h+4     :    -0.000000
      h-4     :     0.000000
      h+5     :    -0.000000
      h-5     :    -0.000000
  1 N s       :    -0.000000  s :    -0.000000
      pz      :     0.000000  p :    -0.000000
      px      :    -0.000000
      py      :    -0.000000
      dz2     :    -0.000000  d :    -0.000000
      dxz     :     0.000000
      dyz     :     0.000000
      dx2y2   :    -0.000000
      dxy     :    -0.000000
      f0      :    -0.000000  f :    -0.000000
      f+1     :    -0.000000
      f-1     :     0.000000
      f+2     :    -0.000000
      f-2     :    -0.000000
      f+3     :     0.000000
      f-3     :    -0.000000
      g0      :     0.000000  g :     0.000000
      g+1     :    -0.000000
      g-1     :     0.000000
      g+2     :    -0.000000
      g-2     :     0.000000
      g+3     :    -0.000000
      g-3     :    -0.000000
      g+4     :    -0.000000
      g-4     :     0.000000
      h0      :    -0.000000  h :     0.000000
      h+1     :    -0.000000
      h-1     :    -0.000000
      h+2     :     0.000000
      h-2     :    -0.000000
      h+3     :     0.000000
      h-3     :    -0.000000
      h+4     :    -0.000000
      h-4     :    -0.000000
      h+5     :     0.000000
      h-5     :     0.000000
  2 Nas       :     0.000000  s :     0.000000
      pz      :    -0.000000  p :     0.000000
      px      :     0.000000
      py      :     0.000000
      dz2     :    -0.000000  d :    -0.000000
      dxz     :    -0.000000
      dyz     :    -0.000000
      dx2y2   :    -0.000000
      dxy     :     0.000000
      f0      :    -0.000000  f :    -0.000000
      f+1     :    -0.000000
      f-1     :    -0.000000
      f+2     :    -0.000000
      f-2     :    -0.000000
      f+3     :     0.000000
      f-3     :    -0.000000
      g0      :    -0.000000  g :    -0.000000
      g+1     :    -0.000000
      g-1     :    -0.000000
      g+2     :     0.000000
      g-2     :    -0.000000
      g+3     :    -0.000000
      g-3     :    -0.000000
      g+4     :    -0.000000
      g-4     :     0.000000


                     *******************************
                     * LOEWDIN POPULATION ANALYSIS *
                     *******************************

-------------------------------------------
LOEWDIN ATOMIC CHARGES AND SPIN POPULATIONS
-------------------------------------------
   0 C :   -0.507004    0.000000
   1 N :   -0.535787   -0.000000
   2 Na:    1.042791    0.000000

----------------------------------------------------
LOEWDIN REDUCED ORBITAL CHARGES AND SPIN POPULATIONS
----------------------------------------------------
CHARGE
  0 C s       :     3.067285  s :     3.067285
      pz      :     0.681977  p :     2.650812
      px      :     1.175141
      py      :     0.793694
      dz2     :     0.066276  d :     0.466527
      dxz     :     0.085451
      dyz     :     0.014385
      dx2y2   :     0.118393
      dxy     :     0.182023
      f0      :     0.015695  f :     0.166682
      f+1     :     0.021808
      f-1     :     0.011483
      f+2     :     0.010801
      f-2     :     0.015477
      f+3     :     0.045680
      f-3     :     0.045739
      g0      :     0.005639  g :     0.087872
      g+1     :     0.006832
      g-1     :     0.002646
      g+2     :     0.003018
      g-2     :     0.013361
      g+3     :     0.001917
      g-3     :     0.006039
      g+4     :     0.035086
      g-4     :     0.013334
      h0      :     0.002625  h :     0.067827
      h+1     :     0.004364
      h-1     :     0.003552
      h+2     :     0.000288
      h-2     :     0.005174
      h+3     :     0.006086
      h-3     :     0.007483
      h+4     :     0.004223
      h-4     :     0.000432
      h+5     :     0.017824
      h-5     :     0.015776
  1 N s       :     3.193094  s :     3.193094
      pz      :     1.016162  p :     3.573998
      px      :     1.438025
      py      :     1.119810
      dz2     :     0.058337  d :     0.344373
      dxz     :     0.038936
      dyz     :     0.014957
      dx2y2   :     0.126201
      dxy     :     0.105942
      f0      :     0.010769  f :     0.164844
      f+1     :     0.016640
      f-1     :     0.026136
      f+2     :     0.008969
      f-2     :     0.008828
      f+3     :     0.043391
      f-3     :     0.050111
      g0      :     0.009791  g :     0.136219
      g+1     :     0.003141
      g-1     :     0.008405
      g+2     :     0.020732
      g-2     :     0.007879
      g+3     :     0.003497
      g-3     :     0.006276
      g+4     :     0.031311
      g-4     :     0.045186
      h0      :     0.005939  h :     0.123259
      h+1     :     0.001828
      h-1     :     0.014142
      h+2     :     0.008604
      h-2     :     0.002825
      h+3     :     0.011355
      h-3     :     0.012768
      h+4     :     0.002316
      h-4     :     0.006440
      h+5     :     0.032808
      h-5     :     0.024236
  2 Nas       :     3.666619  s :     3.666619
      pz      :     1.944790  p :     6.017027
      px      :     1.997706
      py      :     2.074531
      dz2     :     0.026306  d :     0.148723
      dxz     :     0.006239
      dyz     :     0.022173
      dx2y2   :     0.044074
      dxy     :     0.049931
      f0      :     0.007253  f :     0.078925
      f+1     :     0.005310
      f-1     :     0.014108
      f+2     :     0.003134
      f-2     :     0.006057
      f+3     :     0.019469
      f-3     :     0.023594
      g0      :     0.003353  g :     0.045915
      g+1     :     0.001509
      g-1     :     0.005818
      g+2     :     0.004210
      g-2     :     0.004728
      g+3     :     0.002860
      g-3     :     0.000141
      g+4     :     0.012075
      g-4     :     0.011220

SPIN
  0 C s       :     0.000000  s :     0.000000
      pz      :    -0.000000  p :    -0.000000
      px      :    -0.000000
      py      :    -0.000000
      dz2     :     0.000000  d :     0.000000
      dxz     :     0.000000
      dyz     :    -0.000000
      dx2y2   :     0.000000
      dxy     :     0.000000
      f0      :     0.000000  f :    -0.000000
      f+1     :    -0.000000
      f-1     :    -0.000000
      f+2     :     0.000000
      f-2     :    -0.000000
      f+3     :     0.000000
      f-3     :     0.000000
      g0      :    -0.000000  g :    -0.000000
      g+1     :    -0.000000
      g-1     :     0.000000
      g+2     :     0.000000
      g-2     :    -0.000000
      g+3     :    -0.000000
      g-3     :     0.000000
      g+4     :    -0.000000
      g-4     :    -0.000000
      h0      :    -0.000000  h :     0.000000
      h+1     :     0.000000
      h-1     :     0.000000
      h+2     :    -0.000000
      h-2     :    -0.000000
      h+3     :    -0.000000
      h-3     :    -0.000000
      h+4     :    -0.000000
      h-4     :    -0.000000
      h+5     :     0.000000
      h-5     :     0.000000
  1 N s       :    -0.000000  s :    -0.000000
      pz      :     0.000000  p :    -0.000000
      px      :    -0.000000
      py      :    -0.000000
      dz2     :     0.000000  d :    -0.000000
      dxz     :    -0.000000
      dyz     :     0.000000
      dx2y2   :    -0.000000
      dxy     :    -0.000000
      f0      :    -0.000000  f :    -0.000000
      f+1     :     0.000000
      f-1     :    -0.000000
      f+2     :    -0.000000
      f-2     :    -0.000000
      f+3     :    -0.000000
      f-3     :     0.000000
      g0      :     0.000000  g :     0.000000
      g+1     :     0.000000
      g-1     :    -0.000000
      g+2     :    -0.000000
      g-2     :     0.000000
      g+3     :    -0.000000
      g-3     :    -0.000000
      g+4     :     0.000000
      g-4     :     0.000000
      h0      :    -0.000000  h :    -0.000000
      h+1     :     0.000000
      h-1     :     0.000000
      h+2     :     0.000000
      h-2     :    -0.000000
      h+3     :    -0.000000
      h-3     :     0.000000
      h+4     :    -0.000000
      h-4     :    -0.000000
      h+5     :    -0.000000
      h-5     :    -0.000000
  2 Nas       :     0.000000  s :     0.000000
      pz      :    -0.000000  p :     0.000000
      px      :     0.000000
      py      :    -0.000000
      dz2     :     0.000000  d :     0.000000
      dxz     :     0.000000
      dyz     :     0.000000
      dx2y2   :    -0.000000
      dxy     :    -0.000000
      f0      :    -0.000000  f :     0.000000
      f+1     :     0.000000
      f-1     :     0.000000
      f+2     :    -0.000000
      f-2     :    -0.000000
      f+3     :     0.000000
      f-3     :     0.000000
      g0      :     0.000000  g :    -0.000000
      g+1     :    -0.000000
      g-1     :    -0.000000
      g+2     :    -0.000000
      g-2     :    -0.000000
      g+3     :    -0.000000
      g-3     :     0.000000
      g+4     :    -0.000000
      g-4     :     0.000000


                      *****************************
                      * MAYER POPULATION ANALYSIS *
                      *****************************

  NA   - Mulliken gross atomic population
  ZA   - Total nuclear charge
  QA   - Mulliken gross atomic charge
  VA   - Mayer's total valence
  BVA  - Mayer's bonded valence
  FA   - Mayer's free valence

  ATOM       NA         ZA         QA         VA         BVA        FA
  0 C      6.2580     6.0000    -0.2580     2.6471     2.6471     0.0000
  1 N      7.4274     7.0000    -0.4274     2.7877     2.7877    -0.0000
  2 Na    10.3145    11.0000     0.6855     0.5038     0.5038    -0.0000

  Mayer bond orders larger than 0.1
B(  0-C ,  1-N ) :   2.4655 B(  0-C ,  2-Na) :   0.1816 B(  1-N ,  2-Na) :   0.3222 


-------
TIMINGS
-------

Total SCF time: 0 days 0 hours 15 min 35 sec 

Total time                  ....     935.848 sec
Sum of individual times     ....     934.712 sec  ( 99.9%)

Fock matrix formation       ....     930.984 sec  ( 99.5%)
  XC integration            ....      15.869 sec  (  1.7% of F)
    Basis function eval.    ....       1.133 sec  (  7.1% of XC)
    Density eval.           ....       3.263 sec  ( 20.6% of XC)
    XC-Functional eval.     ....       0.145 sec  (  0.9% of XC)
    XC-Potential eval.      ....      10.472 sec  ( 66.0% of XC)
Diagonalization             ....       1.384 sec  (  0.1%)
Density matrix formation    ....       0.024 sec  (  0.0%)
Population analysis         ....       0.371 sec  (  0.0%)
Initial guess               ....       0.671 sec  (  0.1%)
Orbital Transformation      ....       0.000 sec  (  0.0%)
Orbital Orthonormalization  ....       0.000 sec  (  0.0%)
DIIS solution               ....       0.845 sec  (  0.1%)
Grid generation             ....       0.431 sec  (  0.0%)

-------------------------   --------------------
FINAL SINGLE POINT ENERGY      -254.974005493188
-------------------------   --------------------


                            ***************************************
                            *     ORCA property calculations      *
                            ***************************************

                                    ---------------------
                                    Active property flags
                                    ---------------------
   (+) Dipole Moment


------------------------------------------------------------------------------
                       ORCA ELECTRIC PROPERTIES CALCULATION
------------------------------------------------------------------------------

Dipole Moment Calculation                       ... on
Quadrupole Moment Calculation                   ... off
Polarizability Calculation                      ... off
GBWName                                         ... nacn_pbe_-0001_x.gbw
Electron density file                           ... nacn_pbe_-0001_x.scfp.tmp
The origin for moment calculation is the CENTER OF MASS  = (-0.022120, -0.040278  0.000000)

-------------
DIPOLE MOMENT
-------------
                                X             Y             Z
Electronic contribution:     -2.33949      -3.83390      -0.00000
Nuclear contribution   :      0.53106       0.96800       0.00000
                        -----------------------------------------
Total Dipole Moment    :     -1.80843      -2.86590      -0.00000
                        -----------------------------------------
Magnitude (a.u.)       :      3.38877
Magnitude (Debye)      :      8.61358



--------------------
Rotational spectrum 
--------------------
 
Rotational constants in cm-1:     1.854688     0.270089     0.235757 
Rotational constants in MHz : 55602.151725  8097.075355  7067.822217 

 Dipole components along the rotational axes: 
x,y,z [a.u.] :     3.385401     0.151135    -0.000000 
x,y,z [Debye]:     8.605005     0.384156    -0.000000 

 

Timings for individual modules:

Sum of individual times         ...      952.256 sec (=  15.871 min)
GTO integral calculation        ...        7.746 sec (=   0.129 min)   0.8 %
SCF iterations                  ...      944.510 sec (=  15.742 min)  99.2 %
                             ****ORCA TERMINATED NORMALLY****
TOTAL RUN TIME: 0 days 0 hours 15 minutes 57 seconds 628 msec
