
                                 *****************
                                 * O   R   C   A *
                                 *****************

           --- An Ab Initio, DFT and Semiempirical electronic structure package ---

                  #######################################################
                  #                        -***-                        #
                  #          Department of theory and spectroscopy      #
                  #               Directorship: Frank Neese             #
                  #        Max Planck Institute fuer Kohlenforschung    #
                  #                Kaiser Wilhelm Platz 1               #
                  #                 D-45470 Muelheim/Ruhr               #
                  #                      Germany                        #
                  #                                                     #
                  #                  All rights reserved                #
                  #                        -***-                        #
                  #######################################################


                         Program Version 4.1.2  - RELEASE  -


 With contributions from (in alphabetic order):
   Daniel Aravena         : Magnetic Properties
   Michael Atanasov       : Ab Initio Ligand Field Theory
   Alexander A. Auer      : GIAO ZORA
   Ute Becker             : Parallelization
   Giovanni Bistoni       : ED, Open-shell LED
   Martin Brehm           : Molecular dynamics
   Dmytro Bykov           : SCF Hessian
   Vijay G. Chilkuri      : MRCI spin determinant printing
   Dipayan Datta          : RHF DLPNO-CCSD density
   Achintya Kumar Dutta   : EOM-CC, STEOM-CC
   Dmitry Ganyushin       : Spin-Orbit,Spin-Spin,Magnetic field MRCI
   Miquel Garcia          : C-PCM Hessian
   Yang Guo               : DLPNO-NEVPT2, CIM, IAO-localization
   Andreas Hansen         : Spin unrestricted coupled pair/coupled cluster methods
   Benjamin Helmich-Paris : CASSCF linear response (MC-RPA)
   Lee Huntington         : MR-EOM, pCC
   Robert Izsak           : Overlap fitted RIJCOSX, COSX-SCS-MP3, EOM
   Christian Kollmar      : KDIIS, OOCD, Brueckner-CCSD(T), CCSD density
   Simone Kossmann        : Meta GGA functionals, TD-DFT gradient, OOMP2, MP2 Hessian
   Martin Krupicka        : AUTO-CI
   Lucas Lang             : DCDCAS
   Dagmar Lenk            : GEPOL surface, SMD
   Dimitrios Liakos       : Extrapolation schemes; parallel MDCI
   Dimitrios Manganas     : ROCIS; embedding schemes
   Dimitrios Pantazis     : SARC Basis sets
   Taras Petrenko         : DFT Hessian,TD-DFT gradient, ASA, ECA, R-Raman, ABS, FL, XAS/XES, NRVS
   Peter Pinski           : DLPNO-MP2, DLPNO-MP2 Gradient
   Christoph Reimann      : Effective Core Potentials
   Marius Retegan         : Local ZFS, SOC
   Christoph Riplinger    : Optimizer, TS searches, QM/MM, DLPNO-CCSD(T), (RO)-DLPNO pert. Triples
   Tobias Risthaus        : Range-separated hybrids, TD-DFT gradient, RPA, STAB
   Michael Roemelt        : Restricted open shell CIS
   Masaaki Saitow         : Open-shell DLPNO
   Barbara Sandhoefer     : DKH picture change effects
   Avijit Sen             : IP-ROCIS
   Kantharuban Sivalingam : CASSCF convergence, NEVPT2, FIC-MRCI
   Bernardo de Souza      : ESD, SOC TD-DFT
   Georgi Stoychev        : AutoAux, RI-MP2 NMR
   Willem Van den Heuvel  : Paramagnetic NMR
   Boris Wezisla          : Elementary symmetry handling
   Frank Wennmohs         : Technical directorship


 We gratefully acknowledge several colleagues who have allowed us to
 interface, adapt or use parts of their codes:
   Stefan Grimme, W. Hujo, H. Kruse,             : VdW corrections, initial TS optimization,
                  C. Bannwarth                     DFT functionals, gCP, sTDA/sTD-DF
   Ed Valeev                                     : LibInt (2-el integral package), F12 methods
   Garnet Chan, S. Sharma, J. Yang, R. Olivares  : DMRG
   Ulf Ekstrom                                   : XCFun DFT Library
   Mihaly Kallay                                 : mrcc  (arbitrary order and MRCC methods)
   Andreas Klamt, Michael Diedenhofen            : otool_cosmo (COSMO solvation model)
   Jiri Pittner, Ondrej Demel                    : Mk-CCSD
   Frank Weinhold                                : gennbo (NPA and NBO analysis)
   Christopher J. Cramer and Donald G. Truhlar   : smd solvation model
   Lars Goerigk                                  : TD-DFT with DH, B97 family of functionals
   V. Asgeirsson, H. Jonsson                     : NEB implementation
   FAccTs GmbH                                   : IRC, NEB, NEB-TS, Multilevel


 Your calculation uses the libint2 library for the computation of 2-el integrals
 For citations please refer to: http://libint.valeyev.net

 This ORCA versions uses:
   CBLAS   interface :  Fast vector & matrix operations
   LAPACKE interface :  Fast linear algebra routines
   SCALAPACK package :  Parallel linear algebra routines


----- Orbital basis set information -----
Your calculation utilizes the basis: aug-pc-4
   H, C-F              : F. Jensen, J. Chem. Phys. 115, 9113 (2001).
                         F. Jensen, J. Chem. Phys. 116, 7372 (2002).
                         F. Jensen, J. Chem. Phys. 117, 9234 (2002).
   Si-Cl               : F. Jensen, T. Helgaker, J. Chem. Phys. 121, 3463 (2004).
   He-B, Ne-Mg, Al, Ar : F. Jensen, J. Phys. Chem. A 111, 11198 (2007).
   K, Ca, Ga-Kr        : F. Jensen, J. Chem. Phys. 136, 094110 (2012).
   Sc-Zn               : F. Jensen, J. Chem. Phys. 138, 014107 (2013).

================================================================================
                                        WARNINGS
                       Please study these warnings very carefully!
================================================================================


INFO   : the flag for use of LIBINT has been found!

================================================================================
                                       INPUT FILE
================================================================================
NAME = nacn_pbe_+0001_z.inp
|  1> !uks pbe nori aug-pc-4 grid5 nofinalgrid verytightscf
|  2> 
|  3> %maxcore 6000
|  4> 
|  5> %pal nprocs 4 end
|  6> 
|  7> %scf
|  8> 	efield 0.0, 0.0, 0.001
|  9> 	maxiter 200
| 10> end
| 11> 
| 12> * xyz 0 1
| 13> C 1.0848000000 0.6433000000 0.0000000000
| 14> N 0.0000000000 1.1328000000 0.0000000000
| 15> Na -0.5917000000 -1.0717000000 0.0000000000
| 16> *
| 17> 
| 18>                          ****END OF INPUT****
================================================================================

                       ****************************
                       * Single Point Calculation *
                       ****************************

---------------------------------
CARTESIAN COORDINATES (ANGSTROEM)
---------------------------------
  C      1.084800    0.643300    0.000000
  N      0.000000    1.132800    0.000000
  Na    -0.591700   -1.071700    0.000000

----------------------------
CARTESIAN COORDINATES (A.U.)
----------------------------
  NO LB      ZA    FRAG     MASS         X           Y           Z
   0 C     6.0000    0    12.011    2.049975    1.215661    0.000000
   1 N     7.0000    0    14.007    0.000000    2.140682    0.000000
   2 Na   11.0000    0    22.990   -1.118151   -2.025219    0.000000

--------------------------------
INTERNAL COORDINATES (ANGSTROEM)
--------------------------------
 C      0   0   0     0.000000000000     0.00000000     0.00000000
 N      1   0   0     1.190126585704     0.00000000     0.00000000
 Na     2   1   0     2.282526919885    80.73781782     0.00000000

---------------------------
INTERNAL COORDINATES (A.U.)
---------------------------
 C      0   0   0     0.000000000000     0.00000000     0.00000000
 N      1   0   0     2.249013311680     0.00000000     0.00000000
 Na     2   1   0     4.313350771886    80.73781782     0.00000000

---------------------
BASIS SET INFORMATION
---------------------
There are 3 groups of distinct atoms

 Group   1 Type C   : 28s12p7d4f3g2h contracted to 9s8p7d4f3g2h pattern {11101111111/51111111/1111111/1111/111/11}
 Group   2 Type N   : 27s12p7d4f3g2h contracted to 9s8p7d4f3g2h pattern {1191111111/51111111/1111111/1111/111/11}
 Group   3 Type Na  : 44s16p4d3f2g contracted to 8s6p4d3f2g pattern {15111311111/1111111/1111/111/11}

Atom   0C    basis set group =>   1
Atom   1N    basis set group =>   2
Atom   2Na   basis set group =>   3


           ************************************************************
           *        Program running with 4 parallel MPI-processes     *
           *              working on a common directory               *
           ************************************************************
------------------------------------------------------------------------------
                           ORCA GTO INTEGRAL CALCULATION
------------------------------------------------------------------------------

                         BASIS SET STATISTICS AND STARTUP INFO

 # of primitive gaussian shells          ...  180
 # of primitive gaussian functions       ...  502
 # of contracted shells                  ...   89
 # of contracted basis functions         ...  375
 Highest angular momentum                ...    5
 Maximum contraction depth               ...   15
 Integral package used                   ... LIBINT
 Integral threshhold            Thresh   ...  1.000e-12
 Primitive cut-off              TCut     ...  1.000e-14


------------------------------ INTEGRAL EVALUATION ----------------------------


 * One electron integrals 
 Pre-screening matrix                    ... done
 Shell pair data                         ... done (   0.002 sec)


An Electric Field will be added: 0.000e+00 0.000e+00 1.000e-03 au

  ... done adding electric field perturbation



           ************************************************************
           *        Program running with 4 parallel MPI-processes     *
           *              working on a common directory               *
           ************************************************************
-------------------------------------------------------------------------------
                                 ORCA SCF
-------------------------------------------------------------------------------

------------
SCF SETTINGS
------------
Hamiltonian:
 Density Functional     Method          .... DFT(GTOs)
 Exchange Functional    Exchange        .... PBE
   PBE kappa parameter   XKappa         ....  0.804000
   PBE mue parameter    XMuePBE         ....  0.219520
 Correlation Functional Correlation     .... PBE
   PBE beta parameter  CBetaPBE         ....  0.066725
 LDA part of GGA corr.  LDAOpt          .... PW91-LDA
 Gradients option       PostSCFGGA      .... off
   Density functional embedding theory  .... OFF
   NL short-range parameter             ....  6.400000


General Settings:
 Integral files         IntName         .... nacn_pbe_+0001_z
 Hartree-Fock type      HFTyp           .... UHF
 Total Charge           Charge          ....    0
 Multiplicity           Mult            ....    1
 Number of Electrons    NEL             ....   24
 Basis Dimension        Dim             ....  375
 Nuclear Repulsion      ENuc            ....     51.0890517879 Eh

Convergence Acceleration:
 DIIS                   CNVDIIS         .... on
   Start iteration      DIISMaxIt       ....    12
   Startup error        DIISStart       ....  0.200000
   # of expansion vecs  DIISMaxEq       ....     5
   Bias factor          DIISBfac        ....   1.050
   Max. coefficient     DIISMaxC        ....  10.000
 Newton-Raphson         CNVNR           .... off
 SOSCF                  CNVSOSCF        .... off
 Level Shifting         CNVShift        .... on
   Level shift para.    LevelShift      ....    0.2500
   Turn off err/grad.   ShiftErr        ....    0.0010
 Zerner damping         CNVZerner       .... off
 Static damping         CNVDamp         .... on
   Fraction old density DampFac         ....    0.7000
   Max. Damping (<1)    DampMax         ....    0.9800
   Min. Damping (>=0)   DampMin         ....    0.0000
   Turn off err/grad.   DampErr         ....    0.1000
 Fernandez-Rico         CNVRico         .... off

SCF Procedure:
 Maximum # iterations   MaxIter         ....   200
 SCF integral mode      SCFMode         .... Direct
   Integral package                     .... LIBINT
 Reset frequency        DirectResetFreq ....    20
 Integral Threshold     Thresh          ....  1.000e-12 Eh
 Primitive CutOff       TCut            ....  1.000e-14 Eh

Convergence Tolerance:
 Convergence Check Mode ConvCheckMode   .... Total+1el-Energy
 Convergence forced     ConvForced      .... 0
 Energy Change          TolE            ....  1.000e-09 Eh
 1-El. energy change                    ....  1.000e-06 Eh
 DIIS Error             TolErr          ....  1.000e-08


Diagonalization of the overlap matrix:
Smallest eigenvalue                        ... 8.473e-07
Time for diagonalization                   ...    0.026 sec
Threshold for overlap eigenvalues          ... 1.000e-08
Number of eigenvalues below threshold      ... 0
Time for construction of square roots      ...    0.023 sec
Total time needed                          ...    0.049 sec

-------------------
DFT GRID GENERATION
-------------------

General Integration Accuracy     IntAcc      ...  5.010
Radial Grid Type                 RadialGrid  ... Gauss-Chebyshev
Angular Grid (max. acc.)         AngularGrid ... Lebedev-434
Angular grid pruning method      GridPruning ... 3 (G Style)
Weight generation scheme         WeightScheme... Becke
Basis function cutoff            BFCut       ...    1.0000e-12
Integration weight cutoff        WCut        ...    1.0000e-14
Grids for H and He will be reduced by one unit

# of grid points (after initial pruning)     ...  32548 (   0.0 sec)
# of grid points (after weights+screening)   ...  32341 (   0.0 sec)
nearest neighbour list constructed           ...    0.0 sec
Grid point re-assignment to atoms done       ...    0.0 sec
Grid point division into batches done        ...    0.3 sec
Reduced shell lists constructed in    0.4 sec

Total number of grid points                  ...    32341
Total number of batches                      ...      507
Average number of points per batch           ...       63
Average number of grid points per atom       ...    10780
Average number of shells per batch           ...    65.92 (74.07%)
Average number of basis functions per batch  ...   283.30 (75.55%)
Average number of large shells per batch     ...    59.16 (89.74%)
Average number of large basis fcns per batch ...   255.62 (90.23%)
Maximum spatial batch extension              ...  20.76, 17.88, 21.65 au
Average spatial batch extension              ...   1.08,  1.11,  1.15 au

Time for grid setup =    0.385 sec

------------------------------
INITIAL GUESS: MODEL POTENTIAL
------------------------------
Loading Hartree-Fock densities                     ... done
Calculating cut-offs                               ... done
Setting up the integral package                    ... done
Initializing the effective Hamiltonian             ... done
Starting the Coulomb interaction                   ... done (   0.0 sec)
Reading the grid                                   ... done
Mapping shells                                     ... done
Starting the XC term evaluation                    ... done (   0.5 sec)
  promolecular density results
     # of electrons  =     23.999998496
     EX              =    -25.467102563
     EC              =     -0.781783322
     EX+EC           =    -26.248885885
Transforming the Hamiltonian                       ... done (   0.0 sec)
Diagonalizing the Hamiltonian                      ... done (   0.0 sec)
Back transforming the eigenvectors                 ... done (   0.0 sec)
Now organizing SCF variables                       ... done
                      ------------------
                      INITIAL GUESS DONE (   1.4 sec)
                      ------------------
--------------
SCF ITERATIONS
--------------
ITER       Energy         Delta-E        Max-DP      RMS-DP      [F,P]     Damp
               ***  Starting incremental Fock matrix formation  ***
  0   -254.8486132547   0.000000000000 0.02642388  0.00033017  0.2665968 0.7000
  1   -254.9124097967  -0.063796541942 0.02573874  0.00023264  0.0897235 0.7000
                               ***Turning on DIIS***
  2   -254.9302770105  -0.017867213849 0.03550129  0.00037498  0.0398872 0.0000
  3   -254.9613336731  -0.031056662618 0.02075641  0.00017399  0.0479528 0.0000
  4   -254.9692516349  -0.007917961718 0.00440425  0.00004674  0.0432140 0.0000
  5   -254.9719263391  -0.002674704243 0.00449990  0.00003037  0.0125951 0.0000
  6   -254.9721938783  -0.000267539198 0.00271473  0.00001659  0.0026575 0.0000
  7   -254.9722192452  -0.000025366883 0.00228010  0.00001458  0.0009809 0.0000
  8   -254.9722269508  -0.000007705599 0.00025445  0.00000267  0.0002761 0.0000
  9   -254.9722271236  -0.000000172830 0.00013358  0.00000090  0.0002607 0.0000
 10   -254.9722272136  -0.000000089938 0.00004118  0.00000022  0.0000206 0.0000
 11   -254.9722272144  -0.000000000819 0.00001442  0.00000008  0.0000058 0.0000
 12   -254.9722272145  -0.000000000124 0.00000109  0.00000001  0.0000011 0.0000
 13   -254.9722272145  -0.000000000004 0.00000164  0.00000002  0.0000003 0.0000
 14   -254.9722272145  -0.000000000007 0.00000681  0.00000007  0.0000003 0.0000
                 **** Energy Check signals convergence ****

               *****************************************************
               *                     SUCCESS                       *
               *           SCF CONVERGED AFTER  15 CYCLES          *
               *****************************************************


----------------
TOTAL SCF ENERGY
----------------

Total Energy       :         -254.97222721 Eh           -6938.14703 eV

Components:
Nuclear Repulsion  :           51.08905179 Eh            1390.20378 eV
Electronic Energy  :         -306.06127900 Eh           -8328.35081 eV
One Electron Energy:         -455.54063140 Eh          -12395.89078 eV
Two Electron Energy:          149.47935240 Eh            4067.53997 eV

Virial components:
Potential Energy   :         -509.37996976 Eh          -13860.93365 eV
Kinetic Energy     :          254.40774254 Eh            6922.78662 eV
Virial Ratio       :            2.00221882


DFT components:
N(Alpha)           :       11.999998240522 electrons
N(Beta)            :       11.999998240522 electrons
N(Total)           :       23.999996481043 electrons
E(X)               :      -25.696934101350 Eh       
E(C)               :       -0.799009498331 Eh       
E(XC)              :      -26.495943599680 Eh       
DFET-embed. en.    :        0.000000000000 Eh       

---------------
SCF CONVERGENCE
---------------

  Last Energy change         ...    1.0857e-11  Tolerance :   1.0000e-09
  Last MAX-Density change    ...    1.1075e-05  Tolerance :   1.0000e-08
  Last RMS-Density change    ...    1.0107e-07  Tolerance :   1.0000e-09
  Last DIIS Error            ...    5.7163e-08  Tolerance :   1.0000e-08

             **** THE GBW FILE WAS UPDATED (nacn_pbe_+0001_z.gbw) ****
             **** DENSITY FILE WAS UPDATED (nacn_pbe_+0001_z.scfp.tmp) ****
             **** ENERGY FILE WAS UPDATED (nacn_pbe_+0001_z.en.tmp) ****
----------------------
UHF SPIN CONTAMINATION
----------------------

Warning: in a DFT calculation there is little theoretical justification to 
         calculate <S**2> as in Hartree-Fock theory. We will do it anyways
         but you should keep in mind that the values have only limited relevance

Expectation value of <S**2>     :     0.000000
Ideal value S*(S+1) for S=0.0   :     0.000000
Deviation                       :     0.000000

----------------
ORBITAL ENERGIES
----------------
                 SPIN UP ORBITALS
  NO   OCC          E(Eh)            E(eV) 
   0   1.0000     -37.942276     -1032.4618 
   1   1.0000     -13.919554      -378.7703 
   2   1.0000      -9.838806      -267.7275 
   3   1.0000      -2.109966       -57.4151 
   4   1.0000      -1.086327       -29.5605 
   5   1.0000      -1.085840       -29.5472 
   6   1.0000      -1.084381       -29.5075 
   7   1.0000      -0.751776       -20.4569 
   8   1.0000      -0.317906        -8.6507 
   9   1.0000      -0.260080        -7.0771 
  10   1.0000      -0.245348        -6.6763 
  11   1.0000      -0.198610        -5.4044 
  12   0.0000      -0.081764        -2.2249 
  13   0.0000      -0.014815        -0.4031 
  14   0.0000      -0.012787        -0.3480 
  15   0.0000      -0.002467        -0.0671 
  16   0.0000       0.006400         0.1742 
  17   0.0000       0.012183         0.3315 
  18   0.0000       0.017933         0.4880 
  19   0.0000       0.024852         0.6763 
  20   0.0000       0.025336         0.6894 
  21   0.0000       0.027125         0.7381 
  22   0.0000       0.033198         0.9034 
  23   0.0000       0.034544         0.9400 
  24   0.0000       0.036133         0.9832 
  25   0.0000       0.037739         1.0269 
  26   0.0000       0.040553         1.1035 
  27   0.0000       0.051670         1.4060 
  28   0.0000       0.058481         1.5913 
  29   0.0000       0.059629         1.6226 
  30   0.0000       0.061603         1.6763 
  31   0.0000       0.066080         1.7981 
  32   0.0000       0.066999         1.8231 
  33   0.0000       0.074753         2.0341 
  34   0.0000       0.075760         2.0615 
  35   0.0000       0.078199         2.1279 
  36   0.0000       0.082283         2.2390 
  37   0.0000       0.082945         2.2570 
  38   0.0000       0.087149         2.3715 
  39   0.0000       0.092474         2.5163 
  40   0.0000       0.097978         2.6661 
  41   0.0000       0.099413         2.7052 
  42   0.0000       0.104824         2.8524 
  43   0.0000       0.109305         2.9743 
  44   0.0000       0.111087         3.0228 
  45   0.0000       0.115915         3.1542 
  46   0.0000       0.123429         3.3587 
  47   0.0000       0.126233         3.4350 
  48   0.0000       0.131928         3.5899 
  49   0.0000       0.132444         3.6040 
  50   0.0000       0.134907         3.6710 
  51   0.0000       0.135178         3.6784 
  52   0.0000       0.136647         3.7183 
  53   0.0000       0.138374         3.7654 
  54   0.0000       0.144608         3.9350 
  55   0.0000       0.147227         4.0063 
  56   0.0000       0.154510         4.2044 
  57   0.0000       0.164163         4.4671 
  58   0.0000       0.171624         4.6701 
  59   0.0000       0.175056         4.7635 
  60   0.0000       0.181068         4.9271 
  61   0.0000       0.184375         5.0171 
  62   0.0000       0.194657         5.2969 
  63   0.0000       0.200565         5.4576 
  64   0.0000       0.205584         5.5942 
  65   0.0000       0.211378         5.7519 
  66   0.0000       0.216291         5.8856 
  67   0.0000       0.230994         6.2857 
  68   0.0000       0.238520         6.4905 
  69   0.0000       0.249565         6.7910 
  70   0.0000       0.250071         6.8048 
  71   0.0000       0.261854         7.1254 
  72   0.0000       0.263673         7.1749 
  73   0.0000       0.266330         7.2472 
  74   0.0000       0.275951         7.5090 
  75   0.0000       0.277643         7.5550 
  76   0.0000       0.286963         7.8087 
  77   0.0000       0.291557         7.9337 
  78   0.0000       0.292752         7.9662 
  79   0.0000       0.299317         8.1448 
  80   0.0000       0.308953         8.4070 
  81   0.0000       0.326904         8.8955 
  82   0.0000       0.333527         9.0757 
  83   0.0000       0.347554         9.4574 
  84   0.0000       0.367571        10.0021 
  85   0.0000       0.371014        10.0958 
  86   0.0000       0.379875        10.3369 
  87   0.0000       0.390750        10.6329 
  88   0.0000       0.395069        10.7504 
  89   0.0000       0.400925        10.9097 
  90   0.0000       0.406247        11.0545 
  91   0.0000       0.411708        11.2031 
  92   0.0000       0.425097        11.5675 
  93   0.0000       0.427437        11.6312 
  94   0.0000       0.428106        11.6493 
  95   0.0000       0.443958        12.0807 
  96   0.0000       0.453111        12.3298 
  97   0.0000       0.464027        12.6268 
  98   0.0000       0.464390        12.6367 
  99   0.0000       0.473283        12.8787 
 100   0.0000       0.484069        13.1722 
 101   0.0000       0.504739        13.7347 
 102   0.0000       0.518118        14.0987 
 103   0.0000       0.519880        14.1467 
 104   0.0000       0.532319        14.4851 
 105   0.0000       0.542831        14.7712 
 106   0.0000       0.553654        15.0657 
 107   0.0000       0.559428        15.2228 
 108   0.0000       0.566991        15.4286 
 109   0.0000       0.572330        15.5739 
 110   0.0000       0.573233        15.5985 
 111   0.0000       0.576473        15.6866 
 112   0.0000       0.590473        16.0676 
 113   0.0000       0.594208        16.1692 
 114   0.0000       0.611209        16.6319 
 115   0.0000       0.615032        16.7359 
 116   0.0000       0.620829        16.8936 
 117   0.0000       0.629866        17.1395 
 118   0.0000       0.638673        17.3792 
 119   0.0000       0.641177        17.4473 
 120   0.0000       0.647188        17.6109 
 121   0.0000       0.657080        17.8800 
 122   0.0000       0.659864        17.9558 
 123   0.0000       0.666867        18.1464 
 124   0.0000       0.676478        18.4079 
 125   0.0000       0.679611        18.4932 
 126   0.0000       0.685461        18.6523 
 127   0.0000       0.690766        18.7967 
 128   0.0000       0.700236        19.0544 
 129   0.0000       0.701809        19.0972 
 130   0.0000       0.709435        19.3047 
 131   0.0000       0.753441        20.5022 
 132   0.0000       0.766620        20.8608 
 133   0.0000       0.783113        21.3096 
 134   0.0000       0.791734        21.5442 
 135   0.0000       0.804953        21.9039 
 136   0.0000       0.830291        22.5934 
 137   0.0000       0.837822        22.7983 
 138   0.0000       0.848654        23.0930 
 139   0.0000       0.850283        23.1374 
 140   0.0000       0.882983        24.0272 
 141   0.0000       0.888100        24.1664 
 142   0.0000       0.893476        24.3127 
 143   0.0000       0.902867        24.5682 
 144   0.0000       0.911735        24.8096 
 145   0.0000       0.919706        25.0265 
 146   0.0000       0.932244        25.3677 
 147   0.0000       0.946947        25.7678 
 148   0.0000       0.969331        26.3768 
 149   0.0000       0.971146        26.4262 
 150   0.0000       0.979637        26.6573 
 151   0.0000       0.993476        27.0339 
 152   0.0000       1.013581        27.5809 
 153   0.0000       1.016169        27.6514 
 154   0.0000       1.022565        27.8254 
 155   0.0000       1.032641        28.0996 
 156   0.0000       1.042901        28.3788 
 157   0.0000       1.054211        28.6865 
 158   0.0000       1.078612        29.3505 
 159   0.0000       1.101637        29.9771 
 160   0.0000       1.111388        30.2424 
 161   0.0000       1.118051        30.4237 
 162   0.0000       1.124514        30.5996 
 163   0.0000       1.133758        30.8511 
 164   0.0000       1.160081        31.5674 
 165   0.0000       1.194748        32.5107 
 166   0.0000       1.234328        33.5878 
 167   0.0000       1.265215        34.4282 
 168   0.0000       1.266310        34.4580 
 169   0.0000       1.281564        34.8731 
 170   0.0000       1.305042        35.5120 
 171   0.0000       1.377134        37.4737 
 172   0.0000       1.385665        37.7059 
 173   0.0000       1.406906        38.2838 
 174   0.0000       1.451432        39.4955 
 175   0.0000       1.452408        39.5220 
 176   0.0000       1.483834        40.3772 
 177   0.0000       1.487112        40.4664 
 178   0.0000       1.502774        40.8926 
 179   0.0000       1.521176        41.3933 
 180   0.0000       1.522871        41.4394 
 181   0.0000       1.523921        41.4680 
 182   0.0000       1.560516        42.4638 
 183   0.0000       1.584243        43.1094 
 184   0.0000       1.591990        43.3202 
 185   0.0000       1.614573        43.9348 
 186   0.0000       1.628621        44.3170 
 187   0.0000       1.638735        44.5922 
 188   0.0000       1.650245        44.9055 
 189   0.0000       1.698587        46.2209 
 190   0.0000       1.703901        46.3655 
 191   0.0000       1.740284        47.3555 
 192   0.0000       1.760017        47.8925 
 193   0.0000       1.794301        48.8254 
 194   0.0000       1.833888        49.9026 
 195   0.0000       1.932396        52.5832 
 196   0.0000       1.974402        53.7262 
 197   0.0000       2.043368        55.6029 
 198   0.0000       2.051607        55.8271 
 199   0.0000       2.136521        58.1377 
 200   0.0000       2.159240        58.7559 
 201   0.0000       2.161740        58.8239 
 202   0.0000       2.197335        59.7925 
 203   0.0000       2.221202        60.4420 
 204   0.0000       2.227371        60.6099 
 205   0.0000       2.243794        61.0567 
 206   0.0000       2.289508        62.3007 
 207   0.0000       2.318124        63.0794 
 208   0.0000       2.365699        64.3739 
 209   0.0000       2.379417        64.7472 
 210   0.0000       2.452288        66.7302 
 211   0.0000       2.472460        67.2790 
 212   0.0000       2.622079        71.3504 
 213   0.0000       2.677371        72.8550 
 214   0.0000       2.766446        75.2788 
 215   0.0000       2.773902        75.4817 
 216   0.0000       3.060772        83.2878 
 217   0.0000       3.065602        83.4193 
 218   0.0000       3.105198        84.4967 
 219   0.0000       3.178183        86.4828 
 220   0.0000       3.180658        86.5501 
 221   0.0000       3.226707        87.8032 
 222   0.0000       3.286369        89.4266 
 223   0.0000       3.405382        92.6652 
 224   0.0000       3.781196       102.8916 
 225   0.0000       3.865331       105.1810 
 226   0.0000       3.873679       105.4082 
 227   0.0000       3.979371       108.2842 
 228   0.0000       3.980098       108.3040 
 229   0.0000       4.013203       109.2048 
 230   0.0000       4.014106       109.2294 
 231   0.0000       4.049186       110.1840 
 232   0.0000       4.071925       110.8027 
 233   0.0000       4.084934       111.1567 
 234   0.0000       4.095023       111.4312 
 235   0.0000       4.157814       113.1399 
 236   0.0000       4.165061       113.3371 
 237   0.0000       4.213649       114.6592 
 238   0.0000       4.228567       115.0651 
 239   0.0000       4.253858       115.7534 
 240   0.0000       4.275469       116.3414 
 241   0.0000       4.459353       121.3452 
 242   0.0000       4.482897       121.9858 
 243   0.0000       4.530881       123.2915 
 244   0.0000       4.587612       124.8353 
 245   0.0000       4.596225       125.0696 
 246   0.0000       4.724520       128.5607 
 247   0.0000       4.754384       129.3734 
 248   0.0000       4.783248       130.1588 
 249   0.0000       4.784268       130.1866 
 250   0.0000       4.796019       130.5063 
 251   0.0000       4.866976       132.4372 
 252   0.0000       4.908001       133.5535 
 253   0.0000       4.916272       133.7786 
 254   0.0000       5.024466       136.7227 
 255   0.0000       5.059261       137.6695 
 256   0.0000       5.142362       139.9308 
 257   0.0000       5.232984       142.3967 
 258   0.0000       5.268956       143.3756 
 259   0.0000       5.302986       144.3016 
 260   0.0000       5.343431       145.4022 
 261   0.0000       5.386033       146.5614 
 262   0.0000       5.591292       152.1468 
 263   0.0000       5.621915       152.9801 
 264   0.0000       5.634492       153.3223 
 265   0.0000       5.658991       153.9890 
 266   0.0000       5.700343       155.1142 
 267   0.0000       5.711026       155.4049 
 268   0.0000       5.972931       162.5317 
 269   0.0000       6.011317       163.5762 
 270   0.0000       6.089320       165.6988 
 271   0.0000       6.283955       170.9951 
 272   0.0000       6.333644       172.3472 
 273   0.0000       6.346749       172.7038 
 274   0.0000       6.377888       173.5512 
 275   0.0000       6.514673       177.2733 
 276   0.0000       6.663610       181.3260 
 277   0.0000       6.760201       183.9544 
 278   0.0000       6.840349       186.1354 
 279   0.0000       6.907101       187.9518 
 280   0.0000       6.981340       189.9719 
 281   0.0000       7.129349       193.9994 
 282   0.0000       7.233482       196.8331 
 283   0.0000       7.826876       212.9801 
 284   0.0000       8.130288       221.2364 
 285   0.0000       8.280428       225.3219 
 286   0.0000       8.322967       226.4795 
 287   0.0000       9.194337       250.1906 
 288   0.0000       9.337270       254.0800 
 289   0.0000       9.774033       265.9650 
 290   0.0000      10.180557       277.0270 
 291   0.0000      10.210141       277.8321 
 292   0.0000      10.236873       278.5595 
 293   0.0000      10.243683       278.7448 
 294   0.0000      10.357963       281.8545 
 295   0.0000      10.457278       284.5570 
 296   0.0000      10.462195       284.6908 
 297   0.0000      10.469578       284.8917 
 298   0.0000      10.534080       286.6469 
 299   0.0000      10.626830       289.1707 
 300   0.0000      10.627463       289.1880 
 301   0.0000      10.846757       295.1553 
 302   0.0000      10.847965       295.1881 
 303   0.0000      10.891049       296.3605 
 304   0.0000      11.067613       301.1651 
 305   0.0000      11.083556       301.5989 
 306   0.0000      11.365721       309.2770 
 307   0.0000      11.409643       310.4722 
 308   0.0000      11.469188       312.0925 
 309   0.0000      11.469632       312.1046 
 310   0.0000      11.501410       312.9693 
 311   0.0000      11.554800       314.4221 
 312   0.0000      11.581592       315.1512 
 313   0.0000      11.587752       315.3188 
 314   0.0000      11.626648       316.3772 
 315   0.0000      11.658395       317.2411 
 316   0.0000      11.722865       318.9954 
 317   0.0000      11.737050       319.3814 
 318   0.0000      11.747397       319.6629 
 319   0.0000      11.928939       324.6029 
 320   0.0000      11.932502       324.6999 
 321   0.0000      12.022141       327.1391 
 322   0.0000      12.023977       327.1891 
 323   0.0000      12.118972       329.7740 
 324   0.0000      12.134058       330.1845 
 325   0.0000      12.479146       339.5748 
 326   0.0000      12.508708       340.3792 
 327   0.0000      12.655233       344.3664 
 328   0.0000      12.684088       345.1516 
 329   0.0000      12.859217       349.9171 
 330   0.0000      12.985235       353.3462 
 331   0.0000      12.986875       353.3908 
 332   0.0000      13.541656       368.4872 
 333   0.0000      13.719532       373.3274 
 334   0.0000      13.743000       373.9660 
 335   0.0000      14.388495       391.5308 
 336   0.0000      14.410494       392.1295 
 337   0.0000      14.600666       397.3043 
 338   0.0000      14.616652       397.7393 
 339   0.0000      14.670938       399.2165 
 340   0.0000      15.019588       408.7038 
 341   0.0000      15.032168       409.0461 
 342   0.0000      15.387055       418.7030 
 343   0.0000      15.404470       419.1769 
 344   0.0000      15.576814       423.8667 
 345   0.0000      15.826538       430.6620 
 346   0.0000      15.882230       432.1774 
 347   0.0000      16.008245       435.6065 
 348   0.0000      16.743794       455.6218 
 349   0.0000      16.791447       456.9185 
 350   0.0000      16.997141       462.5157 
 351   0.0000      17.074007       464.6074 
 352   0.0000      17.698638       481.6044 
 353   0.0000      17.723955       482.2933 
 354   0.0000      17.739239       482.7092 
 355   0.0000      18.672514       508.1049 
 356   0.0000      19.087316       519.3923 
 357   0.0000      19.126220       520.4509 
 358   0.0000      21.475417       584.3758 
 359   0.0000      24.031051       653.9181 
 360   0.0000      26.151672       711.6232 
 361   0.0000      26.317614       716.1387 
 362   0.0000      27.939852       760.2820 
 363   0.0000      31.966521       869.8533 
 364   0.0000      32.033669       871.6804 
 365   0.0000      32.916233       895.6962 
 366   0.0000      32.925555       895.9499 
 367   0.0000      34.433098       936.9722 
 368   0.0000      47.784433      1300.2805 
 369   0.0000      47.838354      1301.7478 
 370   0.0000      48.024205      1306.8051 
 371   0.0000      48.072625      1308.1226 
 372   0.0000      48.965433      1332.4172 
 373   0.0000      74.224641      2019.7552 
 374   0.0000     104.149805      2834.0603 

                 SPIN DOWN ORBITALS
  NO   OCC          E(Eh)            E(eV) 
   0   1.0000     -37.942276     -1032.4618 
   1   1.0000     -13.919554      -378.7703 
   2   1.0000      -9.838806      -267.7275 
   3   1.0000      -2.109966       -57.4151 
   4   1.0000      -1.086327       -29.5605 
   5   1.0000      -1.085840       -29.5472 
   6   1.0000      -1.084381       -29.5075 
   7   1.0000      -0.751776       -20.4569 
   8   1.0000      -0.317906        -8.6507 
   9   1.0000      -0.260080        -7.0771 
  10   1.0000      -0.245348        -6.6763 
  11   1.0000      -0.198610        -5.4044 
  12   0.0000      -0.081764        -2.2249 
  13   0.0000      -0.014815        -0.4031 
  14   0.0000      -0.012787        -0.3480 
  15   0.0000      -0.002467        -0.0671 
  16   0.0000       0.006400         0.1742 
  17   0.0000       0.012183         0.3315 
  18   0.0000       0.017933         0.4880 
  19   0.0000       0.024852         0.6763 
  20   0.0000       0.025336         0.6894 
  21   0.0000       0.027125         0.7381 
  22   0.0000       0.033198         0.9034 
  23   0.0000       0.034544         0.9400 
  24   0.0000       0.036133         0.9832 
  25   0.0000       0.037739         1.0269 
  26   0.0000       0.040553         1.1035 
  27   0.0000       0.051670         1.4060 
  28   0.0000       0.058481         1.5913 
  29   0.0000       0.059629         1.6226 
  30   0.0000       0.061603         1.6763 
  31   0.0000       0.066080         1.7981 
  32   0.0000       0.066999         1.8231 
  33   0.0000       0.074753         2.0341 
  34   0.0000       0.075760         2.0615 
  35   0.0000       0.078199         2.1279 
  36   0.0000       0.082283         2.2390 
  37   0.0000       0.082945         2.2570 
  38   0.0000       0.087149         2.3715 
  39   0.0000       0.092474         2.5163 
  40   0.0000       0.097978         2.6661 
  41   0.0000       0.099413         2.7052 
  42   0.0000       0.104824         2.8524 
  43   0.0000       0.109305         2.9743 
  44   0.0000       0.111087         3.0228 
  45   0.0000       0.115915         3.1542 
  46   0.0000       0.123429         3.3587 
  47   0.0000       0.126233         3.4350 
  48   0.0000       0.131928         3.5899 
  49   0.0000       0.132444         3.6040 
  50   0.0000       0.134907         3.6710 
  51   0.0000       0.135178         3.6784 
  52   0.0000       0.136647         3.7183 
  53   0.0000       0.138374         3.7654 
  54   0.0000       0.144608         3.9350 
  55   0.0000       0.147227         4.0063 
  56   0.0000       0.154510         4.2044 
  57   0.0000       0.164163         4.4671 
  58   0.0000       0.171624         4.6701 
  59   0.0000       0.175056         4.7635 
  60   0.0000       0.181068         4.9271 
  61   0.0000       0.184375         5.0171 
  62   0.0000       0.194657         5.2969 
  63   0.0000       0.200565         5.4576 
  64   0.0000       0.205584         5.5942 
  65   0.0000       0.211378         5.7519 
  66   0.0000       0.216291         5.8856 
  67   0.0000       0.230994         6.2857 
  68   0.0000       0.238520         6.4905 
  69   0.0000       0.249565         6.7910 
  70   0.0000       0.250071         6.8048 
  71   0.0000       0.261854         7.1254 
  72   0.0000       0.263673         7.1749 
  73   0.0000       0.266330         7.2472 
  74   0.0000       0.275951         7.5090 
  75   0.0000       0.277643         7.5550 
  76   0.0000       0.286963         7.8087 
  77   0.0000       0.291557         7.9337 
  78   0.0000       0.292752         7.9662 
  79   0.0000       0.299317         8.1448 
  80   0.0000       0.308953         8.4070 
  81   0.0000       0.326904         8.8955 
  82   0.0000       0.333527         9.0757 
  83   0.0000       0.347554         9.4574 
  84   0.0000       0.367571        10.0021 
  85   0.0000       0.371014        10.0958 
  86   0.0000       0.379875        10.3369 
  87   0.0000       0.390750        10.6329 
  88   0.0000       0.395069        10.7504 
  89   0.0000       0.400925        10.9097 
  90   0.0000       0.406247        11.0545 
  91   0.0000       0.411708        11.2031 
  92   0.0000       0.425097        11.5675 
  93   0.0000       0.427437        11.6312 
  94   0.0000       0.428106        11.6493 
  95   0.0000       0.443958        12.0807 
  96   0.0000       0.453111        12.3298 
  97   0.0000       0.464027        12.6268 
  98   0.0000       0.464390        12.6367 
  99   0.0000       0.473283        12.8787 
 100   0.0000       0.484069        13.1722 
 101   0.0000       0.504739        13.7347 
 102   0.0000       0.518118        14.0987 
 103   0.0000       0.519880        14.1467 
 104   0.0000       0.532319        14.4851 
 105   0.0000       0.542831        14.7712 
 106   0.0000       0.553654        15.0657 
 107   0.0000       0.559428        15.2228 
 108   0.0000       0.566991        15.4286 
 109   0.0000       0.572330        15.5739 
 110   0.0000       0.573233        15.5985 
 111   0.0000       0.576473        15.6866 
 112   0.0000       0.590473        16.0676 
 113   0.0000       0.594208        16.1692 
 114   0.0000       0.611209        16.6319 
 115   0.0000       0.615032        16.7359 
 116   0.0000       0.620829        16.8936 
 117   0.0000       0.629866        17.1395 
 118   0.0000       0.638673        17.3792 
 119   0.0000       0.641177        17.4473 
 120   0.0000       0.647188        17.6109 
 121   0.0000       0.657080        17.8800 
 122   0.0000       0.659864        17.9558 
 123   0.0000       0.666867        18.1464 
 124   0.0000       0.676478        18.4079 
 125   0.0000       0.679611        18.4932 
 126   0.0000       0.685461        18.6523 
 127   0.0000       0.690766        18.7967 
 128   0.0000       0.700236        19.0544 
 129   0.0000       0.701809        19.0972 
 130   0.0000       0.709435        19.3047 
 131   0.0000       0.753441        20.5022 
 132   0.0000       0.766620        20.8608 
 133   0.0000       0.783113        21.3096 
 134   0.0000       0.791734        21.5442 
 135   0.0000       0.804953        21.9039 
 136   0.0000       0.830291        22.5934 
 137   0.0000       0.837822        22.7983 
 138   0.0000       0.848654        23.0930 
 139   0.0000       0.850283        23.1374 
 140   0.0000       0.882983        24.0272 
 141   0.0000       0.888100        24.1664 
 142   0.0000       0.893476        24.3127 
 143   0.0000       0.902867        24.5682 
 144   0.0000       0.911735        24.8096 
 145   0.0000       0.919706        25.0265 
 146   0.0000       0.932244        25.3677 
 147   0.0000       0.946947        25.7678 
 148   0.0000       0.969331        26.3768 
 149   0.0000       0.971146        26.4262 
 150   0.0000       0.979637        26.6573 
 151   0.0000       0.993476        27.0339 
 152   0.0000       1.013581        27.5809 
 153   0.0000       1.016169        27.6514 
 154   0.0000       1.022565        27.8254 
 155   0.0000       1.032641        28.0996 
 156   0.0000       1.042901        28.3788 
 157   0.0000       1.054211        28.6865 
 158   0.0000       1.078612        29.3505 
 159   0.0000       1.101637        29.9771 
 160   0.0000       1.111388        30.2424 
 161   0.0000       1.118051        30.4237 
 162   0.0000       1.124514        30.5996 
 163   0.0000       1.133758        30.8511 
 164   0.0000       1.160081        31.5674 
 165   0.0000       1.194748        32.5107 
 166   0.0000       1.234328        33.5878 
 167   0.0000       1.265215        34.4282 
 168   0.0000       1.266310        34.4580 
 169   0.0000       1.281564        34.8731 
 170   0.0000       1.305042        35.5120 
 171   0.0000       1.377134        37.4737 
 172   0.0000       1.385665        37.7059 
 173   0.0000       1.406906        38.2838 
 174   0.0000       1.451432        39.4955 
 175   0.0000       1.452408        39.5220 
 176   0.0000       1.483834        40.3772 
 177   0.0000       1.487112        40.4664 
 178   0.0000       1.502774        40.8926 
 179   0.0000       1.521176        41.3933 
 180   0.0000       1.522871        41.4394 
 181   0.0000       1.523921        41.4680 
 182   0.0000       1.560516        42.4638 
 183   0.0000       1.584243        43.1094 
 184   0.0000       1.591990        43.3202 
 185   0.0000       1.614573        43.9348 
 186   0.0000       1.628621        44.3170 
 187   0.0000       1.638735        44.5922 
 188   0.0000       1.650245        44.9055 
 189   0.0000       1.698587        46.2209 
 190   0.0000       1.703901        46.3655 
 191   0.0000       1.740284        47.3555 
 192   0.0000       1.760017        47.8925 
 193   0.0000       1.794301        48.8254 
 194   0.0000       1.833888        49.9026 
 195   0.0000       1.932396        52.5832 
 196   0.0000       1.974402        53.7262 
 197   0.0000       2.043368        55.6029 
 198   0.0000       2.051607        55.8271 
 199   0.0000       2.136521        58.1377 
 200   0.0000       2.159240        58.7559 
 201   0.0000       2.161740        58.8239 
 202   0.0000       2.197335        59.7925 
 203   0.0000       2.221202        60.4420 
 204   0.0000       2.227371        60.6099 
 205   0.0000       2.243794        61.0567 
 206   0.0000       2.289508        62.3007 
 207   0.0000       2.318124        63.0794 
 208   0.0000       2.365699        64.3739 
 209   0.0000       2.379417        64.7472 
 210   0.0000       2.452288        66.7302 
 211   0.0000       2.472460        67.2790 
 212   0.0000       2.622079        71.3504 
 213   0.0000       2.677371        72.8550 
 214   0.0000       2.766446        75.2788 
 215   0.0000       2.773902        75.4817 
 216   0.0000       3.060772        83.2878 
 217   0.0000       3.065602        83.4193 
 218   0.0000       3.105198        84.4967 
 219   0.0000       3.178183        86.4828 
 220   0.0000       3.180658        86.5501 
 221   0.0000       3.226707        87.8032 
 222   0.0000       3.286369        89.4266 
 223   0.0000       3.405382        92.6652 
 224   0.0000       3.781196       102.8916 
 225   0.0000       3.865331       105.1810 
 226   0.0000       3.873679       105.4082 
 227   0.0000       3.979371       108.2842 
 228   0.0000       3.980098       108.3040 
 229   0.0000       4.013203       109.2048 
 230   0.0000       4.014106       109.2294 
 231   0.0000       4.049186       110.1840 
 232   0.0000       4.071925       110.8027 
 233   0.0000       4.084934       111.1567 
 234   0.0000       4.095023       111.4312 
 235   0.0000       4.157814       113.1399 
 236   0.0000       4.165061       113.3371 
 237   0.0000       4.213649       114.6592 
 238   0.0000       4.228567       115.0651 
 239   0.0000       4.253858       115.7534 
 240   0.0000       4.275469       116.3414 
 241   0.0000       4.459353       121.3452 
 242   0.0000       4.482897       121.9858 
 243   0.0000       4.530881       123.2915 
 244   0.0000       4.587612       124.8353 
 245   0.0000       4.596225       125.0696 
 246   0.0000       4.724520       128.5607 
 247   0.0000       4.754384       129.3734 
 248   0.0000       4.783248       130.1588 
 249   0.0000       4.784268       130.1866 
 250   0.0000       4.796019       130.5063 
 251   0.0000       4.866976       132.4372 
 252   0.0000       4.908001       133.5535 
 253   0.0000       4.916272       133.7786 
 254   0.0000       5.024466       136.7227 
 255   0.0000       5.059261       137.6695 
 256   0.0000       5.142362       139.9308 
 257   0.0000       5.232984       142.3967 
 258   0.0000       5.268956       143.3756 
 259   0.0000       5.302986       144.3016 
 260   0.0000       5.343431       145.4022 
 261   0.0000       5.386033       146.5614 
 262   0.0000       5.591292       152.1468 
 263   0.0000       5.621915       152.9801 
 264   0.0000       5.634492       153.3223 
 265   0.0000       5.658991       153.9890 
 266   0.0000       5.700343       155.1142 
 267   0.0000       5.711026       155.4049 
 268   0.0000       5.972931       162.5317 
 269   0.0000       6.011317       163.5762 
 270   0.0000       6.089320       165.6988 
 271   0.0000       6.283955       170.9951 
 272   0.0000       6.333644       172.3472 
 273   0.0000       6.346749       172.7038 
 274   0.0000       6.377888       173.5512 
 275   0.0000       6.514673       177.2733 
 276   0.0000       6.663610       181.3260 
 277   0.0000       6.760201       183.9544 
 278   0.0000       6.840349       186.1354 
 279   0.0000       6.907101       187.9518 
 280   0.0000       6.981340       189.9719 
 281   0.0000       7.129349       193.9994 
 282   0.0000       7.233482       196.8331 
 283   0.0000       7.826876       212.9801 
 284   0.0000       8.130288       221.2364 
 285   0.0000       8.280428       225.3219 
 286   0.0000       8.322967       226.4795 
 287   0.0000       9.194337       250.1906 
 288   0.0000       9.337270       254.0800 
 289   0.0000       9.774033       265.9650 
 290   0.0000      10.180557       277.0270 
 291   0.0000      10.210141       277.8321 
 292   0.0000      10.236873       278.5595 
 293   0.0000      10.243683       278.7448 
 294   0.0000      10.357963       281.8545 
 295   0.0000      10.457278       284.5570 
 296   0.0000      10.462195       284.6908 
 297   0.0000      10.469578       284.8917 
 298   0.0000      10.534080       286.6469 
 299   0.0000      10.626830       289.1707 
 300   0.0000      10.627463       289.1880 
 301   0.0000      10.846757       295.1553 
 302   0.0000      10.847965       295.1881 
 303   0.0000      10.891049       296.3605 
 304   0.0000      11.067613       301.1651 
 305   0.0000      11.083556       301.5989 
 306   0.0000      11.365721       309.2770 
 307   0.0000      11.409643       310.4722 
 308   0.0000      11.469188       312.0925 
 309   0.0000      11.469632       312.1046 
 310   0.0000      11.501410       312.9693 
 311   0.0000      11.554800       314.4221 
 312   0.0000      11.581592       315.1512 
 313   0.0000      11.587752       315.3188 
 314   0.0000      11.626648       316.3772 
 315   0.0000      11.658395       317.2411 
 316   0.0000      11.722865       318.9954 
 317   0.0000      11.737050       319.3814 
 318   0.0000      11.747397       319.6629 
 319   0.0000      11.928939       324.6029 
 320   0.0000      11.932502       324.6999 
 321   0.0000      12.022141       327.1391 
 322   0.0000      12.023977       327.1891 
 323   0.0000      12.118972       329.7740 
 324   0.0000      12.134058       330.1845 
 325   0.0000      12.479146       339.5748 
 326   0.0000      12.508708       340.3792 
 327   0.0000      12.655233       344.3664 
 328   0.0000      12.684088       345.1516 
 329   0.0000      12.859217       349.9171 
 330   0.0000      12.985235       353.3462 
 331   0.0000      12.986875       353.3908 
 332   0.0000      13.541656       368.4872 
 333   0.0000      13.719532       373.3274 
 334   0.0000      13.743000       373.9660 
 335   0.0000      14.388495       391.5308 
 336   0.0000      14.410494       392.1295 
 337   0.0000      14.600666       397.3043 
 338   0.0000      14.616652       397.7393 
 339   0.0000      14.670938       399.2165 
 340   0.0000      15.019588       408.7038 
 341   0.0000      15.032168       409.0461 
 342   0.0000      15.387055       418.7030 
 343   0.0000      15.404470       419.1769 
 344   0.0000      15.576814       423.8667 
 345   0.0000      15.826538       430.6620 
 346   0.0000      15.882230       432.1774 
 347   0.0000      16.008245       435.6065 
 348   0.0000      16.743794       455.6218 
 349   0.0000      16.791447       456.9185 
 350   0.0000      16.997141       462.5157 
 351   0.0000      17.074007       464.6074 
 352   0.0000      17.698638       481.6044 
 353   0.0000      17.723955       482.2933 
 354   0.0000      17.739239       482.7092 
 355   0.0000      18.672514       508.1049 
 356   0.0000      19.087316       519.3923 
 357   0.0000      19.126220       520.4509 
 358   0.0000      21.475417       584.3758 
 359   0.0000      24.031051       653.9181 
 360   0.0000      26.151672       711.6232 
 361   0.0000      26.317614       716.1387 
 362   0.0000      27.939852       760.2820 
 363   0.0000      31.966521       869.8533 
 364   0.0000      32.033669       871.6804 
 365   0.0000      32.916233       895.6962 
 366   0.0000      32.925555       895.9499 
 367   0.0000      34.433098       936.9722 
 368   0.0000      47.784433      1300.2805 
 369   0.0000      47.838354      1301.7478 
 370   0.0000      48.024205      1306.8051 
 371   0.0000      48.072625      1308.1226 
 372   0.0000      48.965433      1332.4172 
 373   0.0000      74.224641      2019.7552 
 374   0.0000     104.149805      2834.0603 

                    ********************************
                    * MULLIKEN POPULATION ANALYSIS *
                    ********************************

--------------------------------------------
MULLIKEN ATOMIC CHARGES AND SPIN POPULATIONS
--------------------------------------------
   0 C :   -0.255927   -0.000000
   1 N :   -0.431075    0.000000
   2 Na:    0.687002    0.000000
Sum of atomic charges         :    0.0000000
Sum of atomic spin populations:    0.0000000

-----------------------------------------------------
MULLIKEN REDUCED ORBITAL CHARGES AND SPIN POPULATIONS
-----------------------------------------------------
CHARGE
  0 C s       :     3.681673  s :     3.681673
      pz      :     0.737814  p :     2.518244
      px      :     1.015682
      py      :     0.764748
      dz2     :     0.003492  d :     0.054456
      dxz     :     0.022632
      dyz     :     0.002453
      dx2y2   :     0.013070
      dxy     :     0.012808
      f0      :     0.000960  f :     0.002966
      f+1     :     0.000281
      f-1     :     0.000024
      f+2     :     0.000810
      f-2     :     0.001031
      f+3     :    -0.000100
      f-3     :    -0.000039
      g0      :    -0.000015  g :    -0.000842
      g+1     :     0.000095
      g-1     :     0.000032
      g+2     :    -0.000102
      g-2     :    -0.000128
      g+3     :    -0.000074
      g-3     :     0.000236
      g+4     :    -0.000206
      g-4     :    -0.000679
      h0      :    -0.000058  h :    -0.000571
      h+1     :    -0.000012
      h-1     :    -0.000022
      h+2     :     0.000004
      h-2     :    -0.000063
      h+3     :    -0.000077
      h-3     :    -0.000054
      h+4     :    -0.000077
      h-4     :     0.000000
      h+5     :    -0.000036
      h-5     :    -0.000175
  1 N s       :     3.940797  s :     3.940797
      pz      :     1.179601  p :     3.447250
      px      :     1.168787
      py      :     1.098862
      dz2     :     0.003464  d :     0.051270
      dxz     :     0.010283
      dyz     :     0.004626
      dx2y2   :     0.019684
      dxy     :     0.013214
      f0      :    -0.000099  f :    -0.002772
      f+1     :    -0.000334
      f-1     :     0.000251
      f+2     :    -0.000348
      f-2     :     0.000031
      f+3     :     0.000091
      f-3     :    -0.002363
      g0      :    -0.000110  g :    -0.004074
      g+1     :     0.000142
      g-1     :    -0.000545
      g+2     :    -0.000350
      g-2     :    -0.000247
      g+3     :    -0.000417
      g-3     :    -0.000263
      g+4     :    -0.002037
      g-4     :    -0.000249
      h0      :    -0.000097  h :    -0.001396
      h+1     :    -0.000022
      h-1     :    -0.000042
      h+2     :    -0.000137
      h-2     :    -0.000033
      h+3     :    -0.000112
      h-3     :    -0.000163
      h+4     :    -0.000091
      h-4     :    -0.000121
      h+5     :     0.000028
      h-5     :    -0.000605
  2 Nas       :     4.111548  s :     4.111548
      pz      :     2.026908  p :     6.138946
      px      :     2.040043
      py      :     2.071995
      dz2     :     0.009667  d :     0.053919
      dxz     :     0.002707
      dyz     :     0.010218
      dx2y2   :     0.015453
      dxy     :     0.015873
      f0      :     0.000639  f :     0.007444
      f+1     :     0.000550
      f-1     :     0.001931
      f+2     :     0.000452
      f-2     :     0.000453
      f+3     :     0.002408
      f-3     :     0.001012
      g0      :     0.000168  g :     0.001141
      g+1     :     0.000024
      g-1     :     0.000152
      g+2     :     0.000114
      g-2     :     0.000206
      g+3     :     0.000126
      g-3     :     0.000008
      g+4     :     0.000157
      g-4     :     0.000187

SPIN
  0 C s       :    -0.000000  s :    -0.000000
      pz      :    -0.000000  p :     0.000000
      px      :     0.000000
      py      :    -0.000000
      dz2     :    -0.000000  d :    -0.000000
      dxz     :    -0.000000
      dyz     :    -0.000000
      dx2y2   :     0.000000
      dxy     :    -0.000000
      f0      :    -0.000000  f :    -0.000000
      f+1     :    -0.000000
      f-1     :    -0.000000
      f+2     :    -0.000000
      f-2     :    -0.000000
      f+3     :     0.000000
      f-3     :    -0.000000
      g0      :    -0.000000  g :    -0.000000
      g+1     :    -0.000000
      g-1     :    -0.000000
      g+2     :    -0.000000
      g-2     :     0.000000
      g+3     :    -0.000000
      g-3     :    -0.000000
      g+4     :     0.000000
      g-4     :    -0.000000
      h0      :    -0.000000  h :    -0.000000
      h+1     :    -0.000000
      h-1     :     0.000000
      h+2     :    -0.000000
      h-2     :    -0.000000
      h+3     :     0.000000
      h-3     :     0.000000
      h+4     :     0.000000
      h-4     :    -0.000000
      h+5     :    -0.000000
      h-5     :     0.000000
  1 N s       :     0.000000  s :     0.000000
      pz      :     0.000000  p :     0.000000
      px      :     0.000000
      py      :     0.000000
      dz2     :     0.000000  d :     0.000000
      dxz     :     0.000000
      dyz     :    -0.000000
      dx2y2   :     0.000000
      dxy     :     0.000000
      f0      :     0.000000  f :    -0.000000
      f+1     :    -0.000000
      f-1     :    -0.000000
      f+2     :     0.000000
      f-2     :     0.000000
      f+3     :    -0.000000
      f-3     :    -0.000000
      g0      :     0.000000  g :    -0.000000
      g+1     :     0.000000
      g-1     :    -0.000000
      g+2     :    -0.000000
      g-2     :    -0.000000
      g+3     :     0.000000
      g-3     :     0.000000
      g+4     :     0.000000
      g-4     :    -0.000000
      h0      :    -0.000000  h :    -0.000000
      h+1     :    -0.000000
      h-1     :     0.000000
      h+2     :     0.000000
      h-2     :    -0.000000
      h+3     :     0.000000
      h-3     :    -0.000000
      h+4     :     0.000000
      h-4     :    -0.000000
      h+5     :    -0.000000
      h-5     :    -0.000000
  2 Nas       :     0.000000  s :     0.000000
      pz      :     0.000000  p :    -0.000000
      px      :    -0.000000
      py      :    -0.000000
      dz2     :    -0.000000  d :     0.000000
      dxz     :     0.000000
      dyz     :    -0.000000
      dx2y2   :     0.000000
      dxy     :    -0.000000
      f0      :    -0.000000  f :     0.000000
      f+1     :     0.000000
      f-1     :     0.000000
      f+2     :    -0.000000
      f-2     :     0.000000
      f+3     :     0.000000
      f-3     :     0.000000
      g0      :     0.000000  g :     0.000000
      g+1     :     0.000000
      g-1     :    -0.000000
      g+2     :     0.000000
      g-2     :    -0.000000
      g+3     :     0.000000
      g-3     :    -0.000000
      g+4     :     0.000000
      g-4     :     0.000000


                     *******************************
                     * LOEWDIN POPULATION ANALYSIS *
                     *******************************

-------------------------------------------
LOEWDIN ATOMIC CHARGES AND SPIN POPULATIONS
-------------------------------------------
   0 C :   -0.506211    0.000000
   1 N :   -0.535905    0.000000
   2 Na:    1.042116   -0.000000

----------------------------------------------------
LOEWDIN REDUCED ORBITAL CHARGES AND SPIN POPULATIONS
----------------------------------------------------
CHARGE
  0 C s       :     3.067688  s :     3.067688
      pz      :     0.680349  p :     2.647755
      px      :     1.175069
      py      :     0.792337
      dz2     :     0.066321  d :     0.468036
      dxz     :     0.086094
      dyz     :     0.014413
      dx2y2   :     0.118780
      dxy     :     0.182428
      f0      :     0.015742  f :     0.166938
      f+1     :     0.021830
      f-1     :     0.011488
      f+2     :     0.010847
      f-2     :     0.015497
      f+3     :     0.045754
      f-3     :     0.045779
      g0      :     0.005642  g :     0.087942
      g+1     :     0.006848
      g-1     :     0.002647
      g+2     :     0.003022
      g-2     :     0.013365
      g+3     :     0.001918
      g-3     :     0.006046
      g+4     :     0.035110
      g-4     :     0.013345
      h0      :     0.002626  h :     0.067853
      h+1     :     0.004365
      h-1     :     0.003552
      h+2     :     0.000289
      h-2     :     0.005176
      h+3     :     0.006088
      h-3     :     0.007486
      h+4     :     0.004224
      h-4     :     0.000433
      h+5     :     0.017834
      h-5     :     0.015780
  1 N s       :     3.193177  s :     3.193177
      pz      :     1.017498  p :     3.575526
      px      :     1.436823
      py      :     1.121205
      dz2     :     0.058329  d :     0.343178
      dxz     :     0.038436
      dyz     :     0.014938
      dx2y2   :     0.125832
      dxy     :     0.105643
      f0      :     0.010739  f :     0.164581
      f+1     :     0.016611
      f-1     :     0.026129
      f+2     :     0.008942
      f-2     :     0.008791
      f+3     :     0.043293
      f-3     :     0.050076
      g0      :     0.009789  g :     0.136178
      g+1     :     0.003130
      g-1     :     0.008403
      g+2     :     0.020733
      g-2     :     0.007880
      g+3     :     0.003499
      g-3     :     0.006266
      g+4     :     0.031298
      g-4     :     0.045180
      h0      :     0.005939  h :     0.123265
      h+1     :     0.001829
      h-1     :     0.014144
      h+2     :     0.008602
      h-2     :     0.002826
      h+3     :     0.011358
      h-3     :     0.012771
      h+4     :     0.002313
      h-4     :     0.006441
      h+5     :     0.032805
      h-5     :     0.024236
  2 Nas       :     3.668176  s :     3.668176
      pz      :     1.944931  p :     6.016314
      px      :     1.996833
      py      :     2.074551
      dz2     :     0.026246  d :     0.148664
      dxz     :     0.006175
      dyz     :     0.022246
      dx2y2   :     0.044119
      dxy     :     0.049878
      f0      :     0.007247  f :     0.078851
      f+1     :     0.005283
      f-1     :     0.014097
      f+2     :     0.003157
      f-2     :     0.006023
      f+3     :     0.019465
      f-3     :     0.023579
      g0      :     0.003347  g :     0.045879
      g+1     :     0.001502
      g-1     :     0.005819
      g+2     :     0.004212
      g-2     :     0.004717
      g+3     :     0.002855
      g-3     :     0.000144
      g+4     :     0.012056
      g-4     :     0.011227

SPIN
  0 C s       :     0.000000  s :     0.000000
      pz      :    -0.000000  p :     0.000000
      px      :     0.000000
      py      :     0.000000
      dz2     :    -0.000000  d :    -0.000000
      dxz     :    -0.000000
      dyz     :    -0.000000
      dx2y2   :    -0.000000
      dxy     :    -0.000000
      f0      :    -0.000000  f :    -0.000000
      f+1     :    -0.000000
      f-1     :    -0.000000
      f+2     :    -0.000000
      f-2     :     0.000000
      f+3     :    -0.000000
      f-3     :    -0.000000
      g0      :    -0.000000  g :    -0.000000
      g+1     :     0.000000
      g-1     :     0.000000
      g+2     :    -0.000000
      g-2     :     0.000000
      g+3     :     0.000000
      g-3     :     0.000000
      g+4     :    -0.000000
      g-4     :     0.000000
      h0      :    -0.000000  h :     0.000000
      h+1     :     0.000000
      h-1     :    -0.000000
      h+2     :     0.000000
      h-2     :    -0.000000
      h+3     :    -0.000000
      h-3     :    -0.000000
      h+4     :    -0.000000
      h-4     :     0.000000
      h+5     :    -0.000000
      h-5     :     0.000000
  1 N s       :     0.000000  s :     0.000000
      pz      :     0.000000  p :     0.000000
      px      :    -0.000000
      py      :     0.000000
      dz2     :    -0.000000  d :    -0.000000
      dxz     :     0.000000
      dyz     :    -0.000000
      dx2y2   :     0.000000
      dxy     :    -0.000000
      f0      :    -0.000000  f :     0.000000
      f+1     :    -0.000000
      f-1     :     0.000000
      f+2     :     0.000000
      f-2     :     0.000000
      f+3     :    -0.000000
      f-3     :     0.000000
      g0      :     0.000000  g :     0.000000
      g+1     :    -0.000000
      g-1     :    -0.000000
      g+2     :     0.000000
      g-2     :     0.000000
      g+3     :    -0.000000
      g-3     :    -0.000000
      g+4     :     0.000000
      g-4     :     0.000000
      h0      :     0.000000  h :    -0.000000
      h+1     :    -0.000000
      h-1     :     0.000000
      h+2     :    -0.000000
      h-2     :    -0.000000
      h+3     :     0.000000
      h-3     :    -0.000000
      h+4     :     0.000000
      h-4     :    -0.000000
      h+5     :    -0.000000
      h-5     :    -0.000000
  2 Nas       :     0.000000  s :     0.000000
      pz      :    -0.000000  p :     0.000000
      px      :     0.000000
      py      :     0.000000
      dz2     :    -0.000000  d :    -0.000000
      dxz     :     0.000000
      dyz     :    -0.000000
      dx2y2   :     0.000000
      dxy     :    -0.000000
      f0      :    -0.000000  f :     0.000000
      f+1     :    -0.000000
      f-1     :     0.000000
      f+2     :    -0.000000
      f-2     :    -0.000000
      f+3     :     0.000000
      f-3     :    -0.000000
      g0      :     0.000000  g :    -0.000000
      g+1     :    -0.000000
      g-1     :    -0.000000
      g+2     :    -0.000000
      g-2     :    -0.000000
      g+3     :    -0.000000
      g-3     :    -0.000000
      g+4     :    -0.000000
      g-4     :     0.000000


                      *****************************
                      * MAYER POPULATION ANALYSIS *
                      *****************************

  NA   - Mulliken gross atomic population
  ZA   - Total nuclear charge
  QA   - Mulliken gross atomic charge
  VA   - Mayer's total valence
  BVA  - Mayer's bonded valence
  FA   - Mayer's free valence

  ATOM       NA         ZA         QA         VA         BVA        FA
  0 C      6.2559     6.0000    -0.2559     2.6463     2.6463     0.0000
  1 N      7.4311     7.0000    -0.4311     2.7888     2.7888    -0.0000
  2 Na    10.3130    11.0000     0.6870     0.5049     0.5049     0.0000

  Mayer bond orders larger than 0.1
B(  0-C ,  1-N ) :   2.4650 B(  0-C ,  2-Na) :   0.1812 B(  1-N ,  2-Na) :   0.3237 


-------
TIMINGS
-------

Total SCF time: 0 days 0 hours 15 min 34 sec 

Total time                  ....     934.646 sec
Sum of individual times     ....     933.849 sec  ( 99.9%)

Fock matrix formation       ....     930.093 sec  ( 99.5%)
  XC integration            ....      15.761 sec  (  1.7% of F)
    Basis function eval.    ....       1.141 sec  (  7.2% of XC)
    Density eval.           ....       3.330 sec  ( 21.1% of XC)
    XC-Functional eval.     ....       0.152 sec  (  1.0% of XC)
    XC-Potential eval.      ....      10.633 sec  ( 67.5% of XC)
Diagonalization             ....       1.394 sec  (  0.1%)
Density matrix formation    ....       0.023 sec  (  0.0%)
Population analysis         ....       0.157 sec  (  0.0%)
Initial guess               ....       0.992 sec  (  0.1%)
Orbital Transformation      ....       0.000 sec  (  0.0%)
Orbital Orthonormalization  ....       0.000 sec  (  0.0%)
DIIS solution               ....       0.804 sec  (  0.1%)
Grid generation             ....       0.385 sec  (  0.0%)

-------------------------   --------------------
FINAL SINGLE POINT ENERGY      -254.972227214494
-------------------------   --------------------


                            ***************************************
                            *     ORCA property calculations      *
                            ***************************************

                                    ---------------------
                                    Active property flags
                                    ---------------------
   (+) Dipole Moment


------------------------------------------------------------------------------
                       ORCA ELECTRIC PROPERTIES CALCULATION
------------------------------------------------------------------------------

Dipole Moment Calculation                       ... on
Quadrupole Moment Calculation                   ... off
Polarizability Calculation                      ... off
GBWName                                         ... nacn_pbe_+0001_z.gbw
Electron density file                           ... nacn_pbe_+0001_z.scfp.tmp
The origin for moment calculation is the CENTER OF MASS  = (-0.022120, -0.040278  0.000000)

-------------
DIPOLE MOMENT
-------------
                                X             Y             Z
Electronic contribution:     -2.30505      -3.83263       0.02591
Nuclear contribution   :      0.53106       0.96800       0.00000
                        -----------------------------------------
Total Dipole Moment    :     -1.77399      -2.86462       0.02591
                        -----------------------------------------
Magnitude (a.u.)       :      3.36954
Magnitude (Debye)      :      8.56468



--------------------
Rotational spectrum 
--------------------
 
Rotational constants in cm-1:     1.854688     0.270089     0.235757 
Rotational constants in MHz : 55602.151725  8097.075355  7067.822217 

 Dipole components along the rotational axes: 
x,y,z [a.u.] :     3.367232     0.121851     0.025913 
x,y,z [Debye]:     8.558823     0.309720     0.065867 

 

Timings for individual modules:

Sum of individual times         ...      936.683 sec (=  15.611 min)
GTO integral calculation        ...        1.749 sec (=   0.029 min)   0.2 %
SCF iterations                  ...      934.934 sec (=  15.582 min)  99.8 %
                             ****ORCA TERMINATED NORMALLY****
TOTAL RUN TIME: 0 days 0 hours 15 minutes 37 seconds 711 msec
