
                                 *****************
                                 * O   R   C   A *
                                 *****************

           --- An Ab Initio, DFT and Semiempirical electronic structure package ---

                  #######################################################
                  #                        -***-                        #
                  #          Department of theory and spectroscopy      #
                  #               Directorship: Frank Neese             #
                  #        Max Planck Institute fuer Kohlenforschung    #
                  #                Kaiser Wilhelm Platz 1               #
                  #                 D-45470 Muelheim/Ruhr               #
                  #                      Germany                        #
                  #                                                     #
                  #                  All rights reserved                #
                  #                        -***-                        #
                  #######################################################


                         Program Version 4.1.2  - RELEASE  -


 With contributions from (in alphabetic order):
   Daniel Aravena         : Magnetic Properties
   Michael Atanasov       : Ab Initio Ligand Field Theory
   Alexander A. Auer      : GIAO ZORA
   Ute Becker             : Parallelization
   Giovanni Bistoni       : ED, Open-shell LED
   Martin Brehm           : Molecular dynamics
   Dmytro Bykov           : SCF Hessian
   Vijay G. Chilkuri      : MRCI spin determinant printing
   Dipayan Datta          : RHF DLPNO-CCSD density
   Achintya Kumar Dutta   : EOM-CC, STEOM-CC
   Dmitry Ganyushin       : Spin-Orbit,Spin-Spin,Magnetic field MRCI
   Miquel Garcia          : C-PCM Hessian
   Yang Guo               : DLPNO-NEVPT2, CIM, IAO-localization
   Andreas Hansen         : Spin unrestricted coupled pair/coupled cluster methods
   Benjamin Helmich-Paris : CASSCF linear response (MC-RPA)
   Lee Huntington         : MR-EOM, pCC
   Robert Izsak           : Overlap fitted RIJCOSX, COSX-SCS-MP3, EOM
   Christian Kollmar      : KDIIS, OOCD, Brueckner-CCSD(T), CCSD density
   Simone Kossmann        : Meta GGA functionals, TD-DFT gradient, OOMP2, MP2 Hessian
   Martin Krupicka        : AUTO-CI
   Lucas Lang             : DCDCAS
   Dagmar Lenk            : GEPOL surface, SMD
   Dimitrios Liakos       : Extrapolation schemes; parallel MDCI
   Dimitrios Manganas     : ROCIS; embedding schemes
   Dimitrios Pantazis     : SARC Basis sets
   Taras Petrenko         : DFT Hessian,TD-DFT gradient, ASA, ECA, R-Raman, ABS, FL, XAS/XES, NRVS
   Peter Pinski           : DLPNO-MP2, DLPNO-MP2 Gradient
   Christoph Reimann      : Effective Core Potentials
   Marius Retegan         : Local ZFS, SOC
   Christoph Riplinger    : Optimizer, TS searches, QM/MM, DLPNO-CCSD(T), (RO)-DLPNO pert. Triples
   Tobias Risthaus        : Range-separated hybrids, TD-DFT gradient, RPA, STAB
   Michael Roemelt        : Restricted open shell CIS
   Masaaki Saitow         : Open-shell DLPNO
   Barbara Sandhoefer     : DKH picture change effects
   Avijit Sen             : IP-ROCIS
   Kantharuban Sivalingam : CASSCF convergence, NEVPT2, FIC-MRCI
   Bernardo de Souza      : ESD, SOC TD-DFT
   Georgi Stoychev        : AutoAux, RI-MP2 NMR
   Willem Van den Heuvel  : Paramagnetic NMR
   Boris Wezisla          : Elementary symmetry handling
   Frank Wennmohs         : Technical directorship


 We gratefully acknowledge several colleagues who have allowed us to
 interface, adapt or use parts of their codes:
   Stefan Grimme, W. Hujo, H. Kruse,             : VdW corrections, initial TS optimization,
                  C. Bannwarth                     DFT functionals, gCP, sTDA/sTD-DF
   Ed Valeev                                     : LibInt (2-el integral package), F12 methods
   Garnet Chan, S. Sharma, J. Yang, R. Olivares  : DMRG
   Ulf Ekstrom                                   : XCFun DFT Library
   Mihaly Kallay                                 : mrcc  (arbitrary order and MRCC methods)
   Andreas Klamt, Michael Diedenhofen            : otool_cosmo (COSMO solvation model)
   Jiri Pittner, Ondrej Demel                    : Mk-CCSD
   Frank Weinhold                                : gennbo (NPA and NBO analysis)
   Christopher J. Cramer and Donald G. Truhlar   : smd solvation model
   Lars Goerigk                                  : TD-DFT with DH, B97 family of functionals
   V. Asgeirsson, H. Jonsson                     : NEB implementation
   FAccTs GmbH                                   : IRC, NEB, NEB-TS, Multilevel


 Your calculation uses the libint2 library for the computation of 2-el integrals
 For citations please refer to: http://libint.valeyev.net

 This ORCA versions uses:
   CBLAS   interface :  Fast vector & matrix operations
   LAPACKE interface :  Fast linear algebra routines
   SCALAPACK package :  Parallel linear algebra routines


----- Orbital basis set information -----
Your calculation utilizes the basis: aug-pc-4
   H, C-F              : F. Jensen, J. Chem. Phys. 115, 9113 (2001).
                         F. Jensen, J. Chem. Phys. 116, 7372 (2002).
                         F. Jensen, J. Chem. Phys. 117, 9234 (2002).
   Si-Cl               : F. Jensen, T. Helgaker, J. Chem. Phys. 121, 3463 (2004).
   He-B, Ne-Mg, Al, Ar : F. Jensen, J. Phys. Chem. A 111, 11198 (2007).
   K, Ca, Ga-Kr        : F. Jensen, J. Chem. Phys. 136, 094110 (2012).
   Sc-Zn               : F. Jensen, J. Chem. Phys. 138, 014107 (2013).

================================================================================
                                        WARNINGS
                       Please study these warnings very carefully!
================================================================================


INFO   : the flag for use of LIBINT has been found!

================================================================================
                                       INPUT FILE
================================================================================
NAME = nacn_pbe_-0001_y.inp
|  1> !uks pbe nori aug-pc-4 grid5 nofinalgrid verytightscf
|  2> 
|  3> %maxcore 6000
|  4> 
|  5> %pal nprocs 4 end
|  6> 
|  7> %scf
|  8> 	efield 0.0, -0.001, 0.0
|  9> 	maxiter 200
| 10> end
| 11> 
| 12> * xyz 0 1
| 13> C 1.0848000000 0.6433000000 0.0000000000
| 14> N 0.0000000000 1.1328000000 0.0000000000
| 15> Na -0.5917000000 -1.0717000000 0.0000000000
| 16> *
| 17> 
| 18>                          ****END OF INPUT****
================================================================================

                       ****************************
                       * Single Point Calculation *
                       ****************************

---------------------------------
CARTESIAN COORDINATES (ANGSTROEM)
---------------------------------
  C      1.084800    0.643300    0.000000
  N      0.000000    1.132800    0.000000
  Na    -0.591700   -1.071700    0.000000

----------------------------
CARTESIAN COORDINATES (A.U.)
----------------------------
  NO LB      ZA    FRAG     MASS         X           Y           Z
   0 C     6.0000    0    12.011    2.049975    1.215661    0.000000
   1 N     7.0000    0    14.007    0.000000    2.140682    0.000000
   2 Na   11.0000    0    22.990   -1.118151   -2.025219    0.000000

--------------------------------
INTERNAL COORDINATES (ANGSTROEM)
--------------------------------
 C      0   0   0     0.000000000000     0.00000000     0.00000000
 N      1   0   0     1.190126585704     0.00000000     0.00000000
 Na     2   1   0     2.282526919885    80.73781782     0.00000000

---------------------------
INTERNAL COORDINATES (A.U.)
---------------------------
 C      0   0   0     0.000000000000     0.00000000     0.00000000
 N      1   0   0     2.249013311680     0.00000000     0.00000000
 Na     2   1   0     4.313350771886    80.73781782     0.00000000

---------------------
BASIS SET INFORMATION
---------------------
There are 3 groups of distinct atoms

 Group   1 Type C   : 28s12p7d4f3g2h contracted to 9s8p7d4f3g2h pattern {11101111111/51111111/1111111/1111/111/11}
 Group   2 Type N   : 27s12p7d4f3g2h contracted to 9s8p7d4f3g2h pattern {1191111111/51111111/1111111/1111/111/11}
 Group   3 Type Na  : 44s16p4d3f2g contracted to 8s6p4d3f2g pattern {15111311111/1111111/1111/111/11}

Atom   0C    basis set group =>   1
Atom   1N    basis set group =>   2
Atom   2Na   basis set group =>   3


           ************************************************************
           *        Program running with 4 parallel MPI-processes     *
           *              working on a common directory               *
           ************************************************************
------------------------------------------------------------------------------
                           ORCA GTO INTEGRAL CALCULATION
------------------------------------------------------------------------------

                         BASIS SET STATISTICS AND STARTUP INFO

 # of primitive gaussian shells          ...  180
 # of primitive gaussian functions       ...  502
 # of contracted shells                  ...   89
 # of contracted basis functions         ...  375
 Highest angular momentum                ...    5
 Maximum contraction depth               ...   15
 Integral package used                   ... LIBINT
 Integral threshhold            Thresh   ...  1.000e-12
 Primitive cut-off              TCut     ...  1.000e-14


------------------------------ INTEGRAL EVALUATION ----------------------------


 * One electron integrals 
 Pre-screening matrix                    ... done
 Shell pair data                         ... done (   0.002 sec)


An Electric Field will be added: 0.000e+00 -1.000e-03 0.000e+00 au

  ... done adding electric field perturbation



           ************************************************************
           *        Program running with 4 parallel MPI-processes     *
           *              working on a common directory               *
           ************************************************************
-------------------------------------------------------------------------------
                                 ORCA SCF
-------------------------------------------------------------------------------

------------
SCF SETTINGS
------------
Hamiltonian:
 Density Functional     Method          .... DFT(GTOs)
 Exchange Functional    Exchange        .... PBE
   PBE kappa parameter   XKappa         ....  0.804000
   PBE mue parameter    XMuePBE         ....  0.219520
 Correlation Functional Correlation     .... PBE
   PBE beta parameter  CBetaPBE         ....  0.066725
 LDA part of GGA corr.  LDAOpt          .... PW91-LDA
 Gradients option       PostSCFGGA      .... off
   Density functional embedding theory  .... OFF
   NL short-range parameter             ....  6.400000


General Settings:
 Integral files         IntName         .... nacn_pbe_-0001_y
 Hartree-Fock type      HFTyp           .... UHF
 Total Charge           Charge          ....    0
 Multiplicity           Mult            ....    1
 Number of Electrons    NEL             ....   24
 Basis Dimension        Dim             ....  375
 Nuclear Repulsion      ENuc            ....     51.0890517879 Eh

Convergence Acceleration:
 DIIS                   CNVDIIS         .... on
   Start iteration      DIISMaxIt       ....    12
   Startup error        DIISStart       ....  0.200000
   # of expansion vecs  DIISMaxEq       ....     5
   Bias factor          DIISBfac        ....   1.050
   Max. coefficient     DIISMaxC        ....  10.000
 Newton-Raphson         CNVNR           .... off
 SOSCF                  CNVSOSCF        .... off
 Level Shifting         CNVShift        .... on
   Level shift para.    LevelShift      ....    0.2500
   Turn off err/grad.   ShiftErr        ....    0.0010
 Zerner damping         CNVZerner       .... off
 Static damping         CNVDamp         .... on
   Fraction old density DampFac         ....    0.7000
   Max. Damping (<1)    DampMax         ....    0.9800
   Min. Damping (>=0)   DampMin         ....    0.0000
   Turn off err/grad.   DampErr         ....    0.1000
 Fernandez-Rico         CNVRico         .... off

SCF Procedure:
 Maximum # iterations   MaxIter         ....   200
 SCF integral mode      SCFMode         .... Direct
   Integral package                     .... LIBINT
 Reset frequency        DirectResetFreq ....    20
 Integral Threshold     Thresh          ....  1.000e-12 Eh
 Primitive CutOff       TCut            ....  1.000e-14 Eh

Convergence Tolerance:
 Convergence Check Mode ConvCheckMode   .... Total+1el-Energy
 Convergence forced     ConvForced      .... 0
 Energy Change          TolE            ....  1.000e-09 Eh
 1-El. energy change                    ....  1.000e-06 Eh
 DIIS Error             TolErr          ....  1.000e-08


Diagonalization of the overlap matrix:
Smallest eigenvalue                        ... 8.473e-07
Time for diagonalization                   ...    0.069 sec
Threshold for overlap eigenvalues          ... 1.000e-08
Number of eigenvalues below threshold      ... 0
Time for construction of square roots      ...    0.018 sec
Total time needed                          ...    0.088 sec

-------------------
DFT GRID GENERATION
-------------------

General Integration Accuracy     IntAcc      ...  5.010
Radial Grid Type                 RadialGrid  ... Gauss-Chebyshev
Angular Grid (max. acc.)         AngularGrid ... Lebedev-434
Angular grid pruning method      GridPruning ... 3 (G Style)
Weight generation scheme         WeightScheme... Becke
Basis function cutoff            BFCut       ...    1.0000e-12
Integration weight cutoff        WCut        ...    1.0000e-14
Grids for H and He will be reduced by one unit

# of grid points (after initial pruning)     ...  32548 (   0.0 sec)
# of grid points (after weights+screening)   ...  32341 (   0.0 sec)
nearest neighbour list constructed           ...    0.0 sec
Grid point re-assignment to atoms done       ...    0.0 sec
Grid point division into batches done        ...    0.3 sec
Reduced shell lists constructed in    0.4 sec

Total number of grid points                  ...    32341
Total number of batches                      ...      507
Average number of points per batch           ...       63
Average number of grid points per atom       ...    10780
Average number of shells per batch           ...    65.92 (74.07%)
Average number of basis functions per batch  ...   283.30 (75.55%)
Average number of large shells per batch     ...    59.16 (89.74%)
Average number of large basis fcns per batch ...   255.62 (90.23%)
Maximum spatial batch extension              ...  20.76, 17.88, 21.65 au
Average spatial batch extension              ...   1.08,  1.11,  1.15 au

Time for grid setup =    0.380 sec

------------------------------
INITIAL GUESS: MODEL POTENTIAL
------------------------------
Loading Hartree-Fock densities                     ... done
Calculating cut-offs                               ... done
Setting up the integral package                    ... done
Initializing the effective Hamiltonian             ... done
Starting the Coulomb interaction                   ... done (   0.0 sec)
Reading the grid                                   ... done
Mapping shells                                     ... done
Starting the XC term evaluation                    ... done (   0.5 sec)
  promolecular density results
     # of electrons  =     23.999998496
     EX              =    -25.467102563
     EC              =     -0.781783322
     EX+EC           =    -26.248885885
Transforming the Hamiltonian                       ... done (   0.0 sec)
Diagonalizing the Hamiltonian                      ... done (   0.0 sec)
Back transforming the eigenvectors                 ... done (   0.0 sec)
Now organizing SCF variables                       ... done
                      ------------------
                      INITIAL GUESS DONE (   1.1 sec)
                      ------------------
--------------
SCF ITERATIONS
--------------
ITER       Energy         Delta-E        Max-DP      RMS-DP      [F,P]     Damp
               ***  Starting incremental Fock matrix formation  ***
  0   -254.8507073388   0.000000000000 0.02643060  0.00033082  0.2685053 0.7000
  1   -254.9149581488  -0.064250810013 0.02594611  0.00023263  0.0901746 0.7000
                               ***Turning on DIIS***
  2   -254.9328462187  -0.017888069910 0.03545035  0.00037336  0.0401940 0.0000
  3   -254.9642859275  -0.031439708786 0.02093162  0.00017443  0.0477008 0.0000
  4   -254.9721202443  -0.007834316868 0.00445995  0.00004673  0.0433308 0.0000
  5   -254.9747970796  -0.002676835288 0.00464232  0.00003100  0.0126716 0.0000
  6   -254.9750635893  -0.000266509626 0.00278297  0.00001696  0.0026595 0.0000
  7   -254.9750881670  -0.000024577790 0.00233066  0.00001483  0.0009480 0.0000
  8   -254.9750955092  -0.000007342175 0.00025298  0.00000269  0.0002567 0.0000
  9   -254.9750956578  -0.000000148557 0.00013542  0.00000090  0.0002461 0.0000
 10   -254.9750957405  -0.000000082731 0.00004306  0.00000023  0.0000198 0.0000
 11   -254.9750957413  -0.000000000777 0.00001503  0.00000008  0.0000058 0.0000
 12   -254.9750957414  -0.000000000111 0.00000164  0.00000001  0.0000011 0.0000
 13   -254.9750957414  -0.000000000002 0.00000133  0.00000002  0.0000003 0.0000
 14   -254.9750957414  -0.000000000001 0.00000519  0.00000006  0.0000004 0.0000
                 **** Energy Check signals convergence ****

               *****************************************************
               *                     SUCCESS                       *
               *           SCF CONVERGED AFTER  15 CYCLES          *
               *****************************************************


----------------
TOTAL SCF ENERGY
----------------

Total Energy       :         -254.97509574 Eh           -6938.22509 eV

Components:
Nuclear Repulsion  :           51.08905179 Eh            1390.20378 eV
Electronic Energy  :         -306.06414753 Eh           -8328.42886 eV
One Electron Energy:         -455.54302404 Eh          -12395.95588 eV
Two Electron Energy:          149.47887652 Eh            4067.52702 eV

Virial components:
Potential Energy   :         -509.38348760 Eh          -13861.02938 eV
Kinetic Energy     :          254.40839186 Eh            6922.80429 eV
Virial Ratio       :            2.00222754


DFT components:
N(Alpha)           :       11.999998240413 electrons
N(Beta)            :       11.999998240413 electrons
N(Total)           :       23.999996480826 electrons
E(X)               :      -25.697549386524 Eh       
E(C)               :       -0.799050828137 Eh       
E(XC)              :      -26.496600214661 Eh       
DFET-embed. en.    :        0.000000000000 Eh       

---------------
SCF CONVERGENCE
---------------

  Last Energy change         ...    3.6096e-12  Tolerance :   1.0000e-09
  Last MAX-Density change    ...    5.7675e-06  Tolerance :   1.0000e-08
  Last RMS-Density change    ...    8.3245e-08  Tolerance :   1.0000e-09
  Last DIIS Error            ...    5.0956e-08  Tolerance :   1.0000e-08

             **** THE GBW FILE WAS UPDATED (nacn_pbe_-0001_y.gbw) ****
             **** DENSITY FILE WAS UPDATED (nacn_pbe_-0001_y.scfp.tmp) ****
             **** ENERGY FILE WAS UPDATED (nacn_pbe_-0001_y.en.tmp) ****
----------------------
UHF SPIN CONTAMINATION
----------------------

Warning: in a DFT calculation there is little theoretical justification to 
         calculate <S**2> as in Hartree-Fock theory. We will do it anyways
         but you should keep in mind that the values have only limited relevance

Expectation value of <S**2>     :    -0.000000
Ideal value S*(S+1) for S=0.0   :     0.000000
Deviation                       :    -0.000000

----------------
ORBITAL ENERGIES
----------------
                 SPIN UP ORBITALS
  NO   OCC          E(Eh)            E(eV) 
   0   1.0000     -37.941129     -1032.4306 
   1   1.0000     -13.920518      -378.7965 
   2   1.0000      -9.839673      -267.7511 
   3   1.0000      -2.108827       -57.3841 
   4   1.0000      -1.085185       -29.5294 
   5   1.0000      -1.084706       -29.5164 
   6   1.0000      -1.083247       -29.4767 
   7   1.0000      -0.752835       -20.4857 
   8   1.0000      -0.319109        -8.6834 
   9   1.0000      -0.261074        -7.1042 
  10   1.0000      -0.246470        -6.7068 
  11   1.0000      -0.199548        -5.4300 
  12   0.0000      -0.078239        -2.1290 
  13   0.0000      -0.012266        -0.3338 
  14   0.0000      -0.008363        -0.2276 
  15   0.0000       0.003933         0.1070 
  16   0.0000       0.009667         0.2630 
  17   0.0000       0.015665         0.4263 
  18   0.0000       0.018844         0.5128 
  19   0.0000       0.022450         0.6109 
  20   0.0000       0.027434         0.7465 
  21   0.0000       0.030298         0.8245 
  22   0.0000       0.034767         0.9461 
  23   0.0000       0.036147         0.9836 
  24   0.0000       0.037625         1.0238 
  25   0.0000       0.038820         1.0563 
  26   0.0000       0.040287         1.0963 
  27   0.0000       0.053191         1.4474 
  28   0.0000       0.057500         1.5647 
  29   0.0000       0.059663         1.6235 
  30   0.0000       0.059959         1.6316 
  31   0.0000       0.065121         1.7720 
  32   0.0000       0.067732         1.8431 
  33   0.0000       0.075582         2.0567 
  34   0.0000       0.077022         2.0959 
  35   0.0000       0.077387         2.1058 
  36   0.0000       0.084404         2.2967 
  37   0.0000       0.084448         2.2979 
  38   0.0000       0.088205         2.4002 
  39   0.0000       0.093818         2.5529 
  40   0.0000       0.099286         2.7017 
  41   0.0000       0.100025         2.7218 
  42   0.0000       0.105738         2.8773 
  43   0.0000       0.110290         3.0012 
  44   0.0000       0.111997         3.0476 
  45   0.0000       0.117758         3.2044 
  46   0.0000       0.122943         3.3455 
  47   0.0000       0.127179         3.4607 
  48   0.0000       0.133206         3.6247 
  49   0.0000       0.134513         3.6603 
  50   0.0000       0.135961         3.6997 
  51   0.0000       0.137167         3.7325 
  52   0.0000       0.138395         3.7659 
  53   0.0000       0.140579         3.8254 
  54   0.0000       0.145303         3.9539 
  55   0.0000       0.147053         4.0015 
  56   0.0000       0.154914         4.2154 
  57   0.0000       0.164854         4.4859 
  58   0.0000       0.171453         4.6655 
  59   0.0000       0.176222         4.7952 
  60   0.0000       0.181514         4.9393 
  61   0.0000       0.184856         5.0302 
  62   0.0000       0.194165         5.2835 
  63   0.0000       0.199152         5.4192 
  64   0.0000       0.207115         5.6359 
  65   0.0000       0.211208         5.7473 
  66   0.0000       0.216104         5.8805 
  67   0.0000       0.231305         6.2941 
  68   0.0000       0.238485         6.4895 
  69   0.0000       0.247885         6.7453 
  70   0.0000       0.248536         6.7630 
  71   0.0000       0.260977         7.1015 
  72   0.0000       0.262413         7.1406 
  73   0.0000       0.268043         7.2938 
  74   0.0000       0.275373         7.4933 
  75   0.0000       0.277464         7.5502 
  76   0.0000       0.285771         7.7762 
  77   0.0000       0.290830         7.9139 
  78   0.0000       0.292212         7.9515 
  79   0.0000       0.297269         8.0891 
  80   0.0000       0.308250         8.3879 
  81   0.0000       0.327089         8.9005 
  82   0.0000       0.331853         9.0302 
  83   0.0000       0.347143         9.4462 
  84   0.0000       0.366607         9.9759 
  85   0.0000       0.370082        10.0704 
  86   0.0000       0.378975        10.3124 
  87   0.0000       0.389488        10.5985 
  88   0.0000       0.392832        10.6895 
  89   0.0000       0.400217        10.8905 
  90   0.0000       0.404810        11.0154 
  91   0.0000       0.409844        11.1524 
  92   0.0000       0.424054        11.5391 
  93   0.0000       0.426333        11.6011 
  94   0.0000       0.426742        11.6122 
  95   0.0000       0.442309        12.0358 
  96   0.0000       0.452432        12.3113 
  97   0.0000       0.463147        12.6029 
  98   0.0000       0.463258        12.6059 
  99   0.0000       0.473278        12.8785 
 100   0.0000       0.483338        13.1523 
 101   0.0000       0.504399        13.7254 
 102   0.0000       0.517439        14.0802 
 103   0.0000       0.518204        14.1010 
 104   0.0000       0.531855        14.4725 
 105   0.0000       0.541663        14.7394 
 106   0.0000       0.551108        14.9964 
 107   0.0000       0.558003        15.1840 
 108   0.0000       0.567142        15.4327 
 109   0.0000       0.572274        15.5724 
 110   0.0000       0.572425        15.5765 
 111   0.0000       0.575526        15.6608 
 112   0.0000       0.590004        16.0548 
 113   0.0000       0.594794        16.1852 
 114   0.0000       0.611538        16.6408 
 115   0.0000       0.614066        16.7096 
 116   0.0000       0.619780        16.8651 
 117   0.0000       0.628296        17.0968 
 118   0.0000       0.637735        17.3536 
 119   0.0000       0.640166        17.4198 
 120   0.0000       0.645822        17.5737 
 121   0.0000       0.655860        17.8468 
 122   0.0000       0.658680        17.9236 
 123   0.0000       0.665975        18.1221 
 124   0.0000       0.675603        18.3841 
 125   0.0000       0.678458        18.4618 
 126   0.0000       0.684667        18.6307 
 127   0.0000       0.690178        18.7807 
 128   0.0000       0.699296        19.0288 
 129   0.0000       0.700707        19.0672 
 130   0.0000       0.708443        19.2777 
 131   0.0000       0.751829        20.4583 
 132   0.0000       0.764929        20.8148 
 133   0.0000       0.781836        21.2748 
 134   0.0000       0.790495        21.5105 
 135   0.0000       0.803905        21.8754 
 136   0.0000       0.828983        22.5578 
 137   0.0000       0.836128        22.7522 
 138   0.0000       0.847380        23.0584 
 139   0.0000       0.849042        23.1036 
 140   0.0000       0.881351        23.9828 
 141   0.0000       0.886031        24.1101 
 142   0.0000       0.891778        24.2665 
 143   0.0000       0.901865        24.5410 
 144   0.0000       0.910379        24.7727 
 145   0.0000       0.918319        24.9887 
 146   0.0000       0.930527        25.3209 
 147   0.0000       0.945510        25.7286 
 148   0.0000       0.968109        26.3436 
 149   0.0000       0.969540        26.3825 
 150   0.0000       0.978099        26.6154 
 151   0.0000       0.991885        26.9906 
 152   0.0000       1.012979        27.5645 
 153   0.0000       1.014749        27.6127 
 154   0.0000       1.020615        27.7724 
 155   0.0000       1.030723        28.0474 
 156   0.0000       1.040878        28.3237 
 157   0.0000       1.052705        28.6456 
 158   0.0000       1.079097        29.3637 
 159   0.0000       1.100687        29.9512 
 160   0.0000       1.111140        30.2357 
 161   0.0000       1.117781        30.4164 
 162   0.0000       1.123281        30.5660 
 163   0.0000       1.133697        30.8495 
 164   0.0000       1.159516        31.5520 
 165   0.0000       1.193911        32.4880 
 166   0.0000       1.232954        33.5504 
 167   0.0000       1.263796        34.3896 
 168   0.0000       1.265754        34.4429 
 169   0.0000       1.281575        34.8734 
 170   0.0000       1.305098        35.5135 
 171   0.0000       1.376647        37.4605 
 172   0.0000       1.386115        37.7181 
 173   0.0000       1.406697        38.2782 
 174   0.0000       1.451854        39.5070 
 175   0.0000       1.452455        39.5233 
 176   0.0000       1.483922        40.3796 
 177   0.0000       1.488204        40.4961 
 178   0.0000       1.503273        40.9061 
 179   0.0000       1.521215        41.3944 
 180   0.0000       1.522837        41.4385 
 181   0.0000       1.524633        41.4874 
 182   0.0000       1.560588        42.4658 
 183   0.0000       1.584799        43.1246 
 184   0.0000       1.593046        43.3490 
 185   0.0000       1.614352        43.9288 
 186   0.0000       1.628481        44.3132 
 187   0.0000       1.639365        44.6094 
 188   0.0000       1.649770        44.8925 
 189   0.0000       1.698048        46.2062 
 190   0.0000       1.703229        46.3472 
 191   0.0000       1.740194        47.3531 
 192   0.0000       1.759441        47.8768 
 193   0.0000       1.793150        48.7941 
 194   0.0000       1.833302        49.8867 
 195   0.0000       1.931872        52.5689 
 196   0.0000       1.973516        53.7021 
 197   0.0000       2.042832        55.5883 
 198   0.0000       2.050579        55.7991 
 199   0.0000       2.135237        58.1028 
 200   0.0000       2.158145        58.7261 
 201   0.0000       2.160674        58.7949 
 202   0.0000       2.196512        59.7701 
 203   0.0000       2.220140        60.4131 
 204   0.0000       2.226166        60.5771 
 205   0.0000       2.242871        61.0316 
 206   0.0000       2.288649        62.2773 
 207   0.0000       2.316938        63.0471 
 208   0.0000       2.364751        64.3481 
 209   0.0000       2.378167        64.7132 
 210   0.0000       2.451372        66.7052 
 211   0.0000       2.471358        67.2491 
 212   0.0000       2.620921        71.3189 
 213   0.0000       2.676791        72.8392 
 214   0.0000       2.765281        75.2471 
 215   0.0000       2.772877        75.4538 
 216   0.0000       3.059489        83.2529 
 217   0.0000       3.064301        83.3839 
 218   0.0000       3.103822        84.4593 
 219   0.0000       3.176946        86.4491 
 220   0.0000       3.179402        86.5159 
 221   0.0000       3.225525        87.7710 
 222   0.0000       3.285370        89.3994 
 223   0.0000       3.403952        92.6262 
 224   0.0000       3.779851       102.8550 
 225   0.0000       3.864939       105.1703 
 226   0.0000       3.872465       105.3751 
 227   0.0000       3.980019       108.3018 
 228   0.0000       3.981067       108.3303 
 229   0.0000       4.014126       109.2299 
 230   0.0000       4.014181       109.2314 
 231   0.0000       4.048208       110.1574 
 232   0.0000       4.071199       110.7830 
 233   0.0000       4.085249       111.1653 
 234   0.0000       4.095687       111.4493 
 235   0.0000       4.157551       113.1327 
 236   0.0000       4.165099       113.3381 
 237   0.0000       4.213467       114.6543 
 238   0.0000       4.228893       115.0740 
 239   0.0000       4.253359       115.7398 
 240   0.0000       4.275027       116.3294 
 241   0.0000       4.458252       121.3152 
 242   0.0000       4.482030       121.9622 
 243   0.0000       4.530170       123.2722 
 244   0.0000       4.586563       124.8067 
 245   0.0000       4.595495       125.0498 
 246   0.0000       4.723322       128.5281 
 247   0.0000       4.753430       129.3474 
 248   0.0000       4.782324       130.1337 
 249   0.0000       4.783240       130.1586 
 250   0.0000       4.794987       130.4782 
 251   0.0000       4.866039       132.4117 
 252   0.0000       4.907107       133.5292 
 253   0.0000       4.915378       133.7542 
 254   0.0000       5.023667       136.7009 
 255   0.0000       5.058327       137.6441 
 256   0.0000       5.141334       139.9028 
 257   0.0000       5.231755       142.3633 
 258   0.0000       5.267742       143.3425 
 259   0.0000       5.301761       144.2683 
 260   0.0000       5.342362       145.3731 
 261   0.0000       5.385004       146.5334 
 262   0.0000       5.592088       152.1685 
 263   0.0000       5.622137       152.9861 
 264   0.0000       5.634210       153.3147 
 265   0.0000       5.658378       153.9723 
 266   0.0000       5.699292       155.0856 
 267   0.0000       5.711797       155.4259 
 268   0.0000       5.973523       162.5478 
 269   0.0000       6.010412       163.5516 
 270   0.0000       6.089808       165.7121 
 271   0.0000       6.282988       170.9688 
 272   0.0000       6.332447       172.3146 
 273   0.0000       6.345839       172.6790 
 274   0.0000       6.376766       173.5206 
 275   0.0000       6.513745       177.2480 
 276   0.0000       6.662394       181.2930 
 277   0.0000       6.759066       183.9235 
 278   0.0000       6.839164       186.1031 
 279   0.0000       6.905827       187.9171 
 280   0.0000       6.980243       189.9421 
 281   0.0000       7.128143       193.9666 
 282   0.0000       7.232353       196.8023 
 283   0.0000       7.825753       212.9496 
 284   0.0000       8.128917       221.1991 
 285   0.0000       8.279286       225.2908 
 286   0.0000       8.321836       226.4487 
 287   0.0000       9.193211       250.1600 
 288   0.0000       9.336167       254.0500 
 289   0.0000       9.773075       265.9389 
 290   0.0000      10.179575       277.0003 
 291   0.0000      10.209138       277.8048 
 292   0.0000      10.235867       278.5321 
 293   0.0000      10.242700       278.7180 
 294   0.0000      10.356873       281.8248 
 295   0.0000      10.456244       284.5289 
 296   0.0000      10.461152       284.6624 
 297   0.0000      10.468634       284.8660 
 298   0.0000      10.533147       286.6215 
 299   0.0000      10.625841       289.1438 
 300   0.0000      10.626474       289.1611 
 301   0.0000      10.845797       295.1291 
 302   0.0000      10.847005       295.1620 
 303   0.0000      10.889999       296.3319 
 304   0.0000      11.066638       301.1385 
 305   0.0000      11.082584       301.5724 
 306   0.0000      11.364585       309.2461 
 307   0.0000      11.408524       310.4417 
 308   0.0000      11.468019       312.0607 
 309   0.0000      11.468461       312.0727 
 310   0.0000      11.500488       312.9442 
 311   0.0000      11.553843       314.3960 
 312   0.0000      11.580484       315.1210 
 313   0.0000      11.586775       315.2922 
 314   0.0000      11.625695       316.3512 
 315   0.0000      11.657314       317.2116 
 316   0.0000      11.721850       318.9678 
 317   0.0000      11.735936       319.3511 
 318   0.0000      11.746387       319.6354 
 319   0.0000      11.928014       324.5778 
 320   0.0000      11.931564       324.6744 
 321   0.0000      12.021248       327.1148 
 322   0.0000      12.023098       327.1651 
 323   0.0000      12.118039       329.7486 
 324   0.0000      12.133114       330.1588 
 325   0.0000      12.478141       339.5475 
 326   0.0000      12.507708       340.3520 
 327   0.0000      12.654405       344.3439 
 328   0.0000      12.683260       345.1291 
 329   0.0000      12.858313       349.8925 
 330   0.0000      12.984177       353.3174 
 331   0.0000      12.985817       353.3621 
 332   0.0000      13.540725       368.4619 
 333   0.0000      13.718588       373.3018 
 334   0.0000      13.742055       373.9403 
 335   0.0000      14.387383       391.5006 
 336   0.0000      14.409386       392.0993 
 337   0.0000      14.599513       397.2729 
 338   0.0000      14.615504       397.7081 
 339   0.0000      14.669857       399.1871 
 340   0.0000      15.018525       408.6748 
 341   0.0000      15.031107       409.0172 
 342   0.0000      15.385895       418.6715 
 343   0.0000      15.403308       419.1453 
 344   0.0000      15.575738       423.8374 
 345   0.0000      15.825392       430.6308 
 346   0.0000      15.881081       432.1462 
 347   0.0000      16.007312       435.5811 
 348   0.0000      16.742779       455.5942 
 349   0.0000      16.790438       456.8910 
 350   0.0000      16.996064       462.4864 
 351   0.0000      17.072935       464.5782 
 352   0.0000      17.697557       481.5750 
 353   0.0000      17.722864       482.2637 
 354   0.0000      17.738183       482.6805 
 355   0.0000      18.671461       508.0763 
 356   0.0000      19.086398       519.3673 
 357   0.0000      19.125303       520.4260 
 358   0.0000      21.474488       584.3505 
 359   0.0000      24.030020       653.8901 
 360   0.0000      26.150647       711.5953 
 361   0.0000      26.316592       716.1109 
 362   0.0000      27.938830       760.2542 
 363   0.0000      31.965628       869.8290 
 364   0.0000      32.032777       871.6562 
 365   0.0000      32.915352       895.6723 
 366   0.0000      32.924673       895.9259 
 367   0.0000      34.432210       936.9481 
 368   0.0000      47.783448      1300.2537 
 369   0.0000      47.837371      1301.7210 
 370   0.0000      48.023210      1306.7780 
 371   0.0000      48.071631      1308.0956 
 372   0.0000      48.964434      1332.3900 
 373   0.0000      74.223788      2019.7320 
 374   0.0000     104.148805      2834.0331 

                 SPIN DOWN ORBITALS
  NO   OCC          E(Eh)            E(eV) 
   0   1.0000     -37.941129     -1032.4306 
   1   1.0000     -13.920518      -378.7965 
   2   1.0000      -9.839673      -267.7511 
   3   1.0000      -2.108827       -57.3841 
   4   1.0000      -1.085185       -29.5294 
   5   1.0000      -1.084706       -29.5164 
   6   1.0000      -1.083247       -29.4767 
   7   1.0000      -0.752835       -20.4857 
   8   1.0000      -0.319109        -8.6834 
   9   1.0000      -0.261074        -7.1042 
  10   1.0000      -0.246470        -6.7068 
  11   1.0000      -0.199548        -5.4300 
  12   0.0000      -0.078239        -2.1290 
  13   0.0000      -0.012266        -0.3338 
  14   0.0000      -0.008363        -0.2276 
  15   0.0000       0.003933         0.1070 
  16   0.0000       0.009667         0.2630 
  17   0.0000       0.015665         0.4263 
  18   0.0000       0.018844         0.5128 
  19   0.0000       0.022450         0.6109 
  20   0.0000       0.027434         0.7465 
  21   0.0000       0.030298         0.8245 
  22   0.0000       0.034767         0.9461 
  23   0.0000       0.036147         0.9836 
  24   0.0000       0.037625         1.0238 
  25   0.0000       0.038820         1.0563 
  26   0.0000       0.040287         1.0963 
  27   0.0000       0.053191         1.4474 
  28   0.0000       0.057500         1.5647 
  29   0.0000       0.059663         1.6235 
  30   0.0000       0.059959         1.6316 
  31   0.0000       0.065121         1.7720 
  32   0.0000       0.067732         1.8431 
  33   0.0000       0.075582         2.0567 
  34   0.0000       0.077022         2.0959 
  35   0.0000       0.077387         2.1058 
  36   0.0000       0.084404         2.2967 
  37   0.0000       0.084448         2.2979 
  38   0.0000       0.088205         2.4002 
  39   0.0000       0.093818         2.5529 
  40   0.0000       0.099286         2.7017 
  41   0.0000       0.100025         2.7218 
  42   0.0000       0.105738         2.8773 
  43   0.0000       0.110290         3.0012 
  44   0.0000       0.111997         3.0476 
  45   0.0000       0.117758         3.2044 
  46   0.0000       0.122943         3.3455 
  47   0.0000       0.127179         3.4607 
  48   0.0000       0.133206         3.6247 
  49   0.0000       0.134513         3.6603 
  50   0.0000       0.135961         3.6997 
  51   0.0000       0.137167         3.7325 
  52   0.0000       0.138395         3.7659 
  53   0.0000       0.140579         3.8254 
  54   0.0000       0.145303         3.9539 
  55   0.0000       0.147053         4.0015 
  56   0.0000       0.154914         4.2154 
  57   0.0000       0.164854         4.4859 
  58   0.0000       0.171453         4.6655 
  59   0.0000       0.176222         4.7952 
  60   0.0000       0.181514         4.9393 
  61   0.0000       0.184856         5.0302 
  62   0.0000       0.194165         5.2835 
  63   0.0000       0.199152         5.4192 
  64   0.0000       0.207115         5.6359 
  65   0.0000       0.211208         5.7473 
  66   0.0000       0.216104         5.8805 
  67   0.0000       0.231305         6.2941 
  68   0.0000       0.238485         6.4895 
  69   0.0000       0.247885         6.7453 
  70   0.0000       0.248536         6.7630 
  71   0.0000       0.260977         7.1015 
  72   0.0000       0.262413         7.1406 
  73   0.0000       0.268043         7.2938 
  74   0.0000       0.275373         7.4933 
  75   0.0000       0.277464         7.5502 
  76   0.0000       0.285771         7.7762 
  77   0.0000       0.290830         7.9139 
  78   0.0000       0.292212         7.9515 
  79   0.0000       0.297269         8.0891 
  80   0.0000       0.308250         8.3879 
  81   0.0000       0.327089         8.9005 
  82   0.0000       0.331853         9.0302 
  83   0.0000       0.347143         9.4462 
  84   0.0000       0.366607         9.9759 
  85   0.0000       0.370082        10.0704 
  86   0.0000       0.378975        10.3124 
  87   0.0000       0.389488        10.5985 
  88   0.0000       0.392832        10.6895 
  89   0.0000       0.400217        10.8905 
  90   0.0000       0.404810        11.0154 
  91   0.0000       0.409844        11.1524 
  92   0.0000       0.424054        11.5391 
  93   0.0000       0.426333        11.6011 
  94   0.0000       0.426742        11.6122 
  95   0.0000       0.442309        12.0358 
  96   0.0000       0.452432        12.3113 
  97   0.0000       0.463147        12.6029 
  98   0.0000       0.463258        12.6059 
  99   0.0000       0.473278        12.8785 
 100   0.0000       0.483338        13.1523 
 101   0.0000       0.504399        13.7254 
 102   0.0000       0.517439        14.0802 
 103   0.0000       0.518204        14.1010 
 104   0.0000       0.531855        14.4725 
 105   0.0000       0.541663        14.7394 
 106   0.0000       0.551108        14.9964 
 107   0.0000       0.558003        15.1840 
 108   0.0000       0.567142        15.4327 
 109   0.0000       0.572274        15.5724 
 110   0.0000       0.572425        15.5765 
 111   0.0000       0.575526        15.6608 
 112   0.0000       0.590004        16.0548 
 113   0.0000       0.594794        16.1852 
 114   0.0000       0.611538        16.6408 
 115   0.0000       0.614066        16.7096 
 116   0.0000       0.619780        16.8651 
 117   0.0000       0.628296        17.0968 
 118   0.0000       0.637735        17.3536 
 119   0.0000       0.640166        17.4198 
 120   0.0000       0.645822        17.5737 
 121   0.0000       0.655860        17.8468 
 122   0.0000       0.658680        17.9236 
 123   0.0000       0.665975        18.1221 
 124   0.0000       0.675603        18.3841 
 125   0.0000       0.678458        18.4618 
 126   0.0000       0.684667        18.6307 
 127   0.0000       0.690178        18.7807 
 128   0.0000       0.699296        19.0288 
 129   0.0000       0.700707        19.0672 
 130   0.0000       0.708443        19.2777 
 131   0.0000       0.751829        20.4583 
 132   0.0000       0.764929        20.8148 
 133   0.0000       0.781836        21.2748 
 134   0.0000       0.790495        21.5105 
 135   0.0000       0.803905        21.8754 
 136   0.0000       0.828983        22.5578 
 137   0.0000       0.836128        22.7522 
 138   0.0000       0.847380        23.0584 
 139   0.0000       0.849042        23.1036 
 140   0.0000       0.881351        23.9828 
 141   0.0000       0.886031        24.1101 
 142   0.0000       0.891778        24.2665 
 143   0.0000       0.901865        24.5410 
 144   0.0000       0.910379        24.7727 
 145   0.0000       0.918319        24.9887 
 146   0.0000       0.930527        25.3209 
 147   0.0000       0.945510        25.7286 
 148   0.0000       0.968109        26.3436 
 149   0.0000       0.969540        26.3825 
 150   0.0000       0.978099        26.6154 
 151   0.0000       0.991885        26.9906 
 152   0.0000       1.012979        27.5645 
 153   0.0000       1.014749        27.6127 
 154   0.0000       1.020615        27.7724 
 155   0.0000       1.030723        28.0474 
 156   0.0000       1.040878        28.3237 
 157   0.0000       1.052705        28.6456 
 158   0.0000       1.079097        29.3637 
 159   0.0000       1.100687        29.9512 
 160   0.0000       1.111140        30.2357 
 161   0.0000       1.117781        30.4164 
 162   0.0000       1.123281        30.5660 
 163   0.0000       1.133697        30.8495 
 164   0.0000       1.159516        31.5520 
 165   0.0000       1.193911        32.4880 
 166   0.0000       1.232954        33.5504 
 167   0.0000       1.263796        34.3896 
 168   0.0000       1.265754        34.4429 
 169   0.0000       1.281575        34.8734 
 170   0.0000       1.305098        35.5135 
 171   0.0000       1.376647        37.4605 
 172   0.0000       1.386115        37.7181 
 173   0.0000       1.406697        38.2782 
 174   0.0000       1.451854        39.5070 
 175   0.0000       1.452455        39.5233 
 176   0.0000       1.483922        40.3796 
 177   0.0000       1.488204        40.4961 
 178   0.0000       1.503273        40.9061 
 179   0.0000       1.521215        41.3944 
 180   0.0000       1.522837        41.4385 
 181   0.0000       1.524633        41.4874 
 182   0.0000       1.560588        42.4658 
 183   0.0000       1.584799        43.1246 
 184   0.0000       1.593046        43.3490 
 185   0.0000       1.614352        43.9288 
 186   0.0000       1.628481        44.3132 
 187   0.0000       1.639365        44.6094 
 188   0.0000       1.649770        44.8925 
 189   0.0000       1.698048        46.2062 
 190   0.0000       1.703229        46.3472 
 191   0.0000       1.740194        47.3531 
 192   0.0000       1.759441        47.8768 
 193   0.0000       1.793150        48.7941 
 194   0.0000       1.833302        49.8867 
 195   0.0000       1.931872        52.5689 
 196   0.0000       1.973516        53.7021 
 197   0.0000       2.042832        55.5883 
 198   0.0000       2.050579        55.7991 
 199   0.0000       2.135237        58.1028 
 200   0.0000       2.158145        58.7261 
 201   0.0000       2.160674        58.7949 
 202   0.0000       2.196512        59.7701 
 203   0.0000       2.220140        60.4131 
 204   0.0000       2.226166        60.5771 
 205   0.0000       2.242871        61.0316 
 206   0.0000       2.288649        62.2773 
 207   0.0000       2.316938        63.0471 
 208   0.0000       2.364751        64.3481 
 209   0.0000       2.378167        64.7132 
 210   0.0000       2.451372        66.7052 
 211   0.0000       2.471358        67.2491 
 212   0.0000       2.620921        71.3189 
 213   0.0000       2.676791        72.8392 
 214   0.0000       2.765281        75.2471 
 215   0.0000       2.772877        75.4538 
 216   0.0000       3.059489        83.2529 
 217   0.0000       3.064301        83.3839 
 218   0.0000       3.103822        84.4593 
 219   0.0000       3.176946        86.4491 
 220   0.0000       3.179402        86.5159 
 221   0.0000       3.225525        87.7710 
 222   0.0000       3.285370        89.3994 
 223   0.0000       3.403952        92.6262 
 224   0.0000       3.779851       102.8550 
 225   0.0000       3.864939       105.1703 
 226   0.0000       3.872465       105.3751 
 227   0.0000       3.980019       108.3018 
 228   0.0000       3.981067       108.3303 
 229   0.0000       4.014126       109.2299 
 230   0.0000       4.014181       109.2314 
 231   0.0000       4.048208       110.1574 
 232   0.0000       4.071199       110.7830 
 233   0.0000       4.085249       111.1653 
 234   0.0000       4.095687       111.4493 
 235   0.0000       4.157551       113.1327 
 236   0.0000       4.165099       113.3381 
 237   0.0000       4.213467       114.6543 
 238   0.0000       4.228893       115.0740 
 239   0.0000       4.253359       115.7398 
 240   0.0000       4.275027       116.3294 
 241   0.0000       4.458252       121.3152 
 242   0.0000       4.482030       121.9622 
 243   0.0000       4.530170       123.2722 
 244   0.0000       4.586563       124.8067 
 245   0.0000       4.595495       125.0498 
 246   0.0000       4.723322       128.5281 
 247   0.0000       4.753430       129.3474 
 248   0.0000       4.782324       130.1337 
 249   0.0000       4.783240       130.1586 
 250   0.0000       4.794987       130.4782 
 251   0.0000       4.866039       132.4117 
 252   0.0000       4.907107       133.5292 
 253   0.0000       4.915378       133.7542 
 254   0.0000       5.023667       136.7009 
 255   0.0000       5.058327       137.6441 
 256   0.0000       5.141334       139.9028 
 257   0.0000       5.231755       142.3633 
 258   0.0000       5.267742       143.3425 
 259   0.0000       5.301761       144.2683 
 260   0.0000       5.342362       145.3731 
 261   0.0000       5.385004       146.5334 
 262   0.0000       5.592088       152.1685 
 263   0.0000       5.622137       152.9861 
 264   0.0000       5.634210       153.3147 
 265   0.0000       5.658378       153.9723 
 266   0.0000       5.699292       155.0856 
 267   0.0000       5.711797       155.4259 
 268   0.0000       5.973523       162.5478 
 269   0.0000       6.010412       163.5516 
 270   0.0000       6.089808       165.7121 
 271   0.0000       6.282988       170.9688 
 272   0.0000       6.332447       172.3146 
 273   0.0000       6.345839       172.6790 
 274   0.0000       6.376766       173.5206 
 275   0.0000       6.513745       177.2480 
 276   0.0000       6.662394       181.2930 
 277   0.0000       6.759066       183.9235 
 278   0.0000       6.839164       186.1031 
 279   0.0000       6.905827       187.9171 
 280   0.0000       6.980243       189.9421 
 281   0.0000       7.128143       193.9666 
 282   0.0000       7.232353       196.8023 
 283   0.0000       7.825753       212.9496 
 284   0.0000       8.128917       221.1991 
 285   0.0000       8.279286       225.2908 
 286   0.0000       8.321836       226.4487 
 287   0.0000       9.193211       250.1600 
 288   0.0000       9.336167       254.0500 
 289   0.0000       9.773075       265.9389 
 290   0.0000      10.179575       277.0003 
 291   0.0000      10.209138       277.8048 
 292   0.0000      10.235867       278.5321 
 293   0.0000      10.242700       278.7180 
 294   0.0000      10.356873       281.8248 
 295   0.0000      10.456244       284.5289 
 296   0.0000      10.461152       284.6624 
 297   0.0000      10.468634       284.8660 
 298   0.0000      10.533147       286.6215 
 299   0.0000      10.625841       289.1438 
 300   0.0000      10.626474       289.1611 
 301   0.0000      10.845797       295.1291 
 302   0.0000      10.847005       295.1620 
 303   0.0000      10.889999       296.3319 
 304   0.0000      11.066638       301.1385 
 305   0.0000      11.082584       301.5724 
 306   0.0000      11.364585       309.2461 
 307   0.0000      11.408524       310.4417 
 308   0.0000      11.468019       312.0607 
 309   0.0000      11.468461       312.0727 
 310   0.0000      11.500488       312.9442 
 311   0.0000      11.553843       314.3960 
 312   0.0000      11.580484       315.1210 
 313   0.0000      11.586775       315.2922 
 314   0.0000      11.625695       316.3512 
 315   0.0000      11.657314       317.2116 
 316   0.0000      11.721850       318.9678 
 317   0.0000      11.735936       319.3511 
 318   0.0000      11.746387       319.6354 
 319   0.0000      11.928014       324.5778 
 320   0.0000      11.931564       324.6744 
 321   0.0000      12.021248       327.1148 
 322   0.0000      12.023098       327.1651 
 323   0.0000      12.118039       329.7486 
 324   0.0000      12.133114       330.1588 
 325   0.0000      12.478141       339.5475 
 326   0.0000      12.507708       340.3520 
 327   0.0000      12.654405       344.3439 
 328   0.0000      12.683260       345.1291 
 329   0.0000      12.858313       349.8925 
 330   0.0000      12.984177       353.3174 
 331   0.0000      12.985817       353.3621 
 332   0.0000      13.540725       368.4619 
 333   0.0000      13.718588       373.3018 
 334   0.0000      13.742055       373.9403 
 335   0.0000      14.387383       391.5006 
 336   0.0000      14.409386       392.0993 
 337   0.0000      14.599513       397.2729 
 338   0.0000      14.615504       397.7081 
 339   0.0000      14.669857       399.1871 
 340   0.0000      15.018525       408.6748 
 341   0.0000      15.031107       409.0172 
 342   0.0000      15.385895       418.6715 
 343   0.0000      15.403308       419.1453 
 344   0.0000      15.575738       423.8374 
 345   0.0000      15.825392       430.6308 
 346   0.0000      15.881081       432.1462 
 347   0.0000      16.007312       435.5811 
 348   0.0000      16.742779       455.5942 
 349   0.0000      16.790438       456.8910 
 350   0.0000      16.996064       462.4864 
 351   0.0000      17.072935       464.5782 
 352   0.0000      17.697557       481.5750 
 353   0.0000      17.722864       482.2637 
 354   0.0000      17.738183       482.6805 
 355   0.0000      18.671461       508.0763 
 356   0.0000      19.086398       519.3673 
 357   0.0000      19.125303       520.4260 
 358   0.0000      21.474488       584.3505 
 359   0.0000      24.030020       653.8901 
 360   0.0000      26.150647       711.5953 
 361   0.0000      26.316592       716.1109 
 362   0.0000      27.938830       760.2542 
 363   0.0000      31.965628       869.8290 
 364   0.0000      32.032777       871.6562 
 365   0.0000      32.915352       895.6723 
 366   0.0000      32.924673       895.9259 
 367   0.0000      34.432210       936.9481 
 368   0.0000      47.783448      1300.2537 
 369   0.0000      47.837371      1301.7210 
 370   0.0000      48.023210      1306.7780 
 371   0.0000      48.071631      1308.0956 
 372   0.0000      48.964434      1332.3900 
 373   0.0000      74.223788      2019.7320 
 374   0.0000     104.148805      2834.0331 

                    ********************************
                    * MULLIKEN POPULATION ANALYSIS *
                    ********************************

--------------------------------------------
MULLIKEN ATOMIC CHARGES AND SPIN POPULATIONS
--------------------------------------------
   0 C :   -0.253570    0.000000
   1 N :   -0.434205   -0.000000
   2 Na:    0.687775    0.000000
Sum of atomic charges         :   -0.0000000
Sum of atomic spin populations:   -0.0000000

-----------------------------------------------------
MULLIKEN REDUCED ORBITAL CHARGES AND SPIN POPULATIONS
-----------------------------------------------------
CHARGE
  0 C s       :     3.683594  s :     3.683594
      pz      :     0.736604  p :     2.514264
      px      :     1.015803
      py      :     0.761856
      dz2     :     0.003410  d :     0.054223
      dxz     :     0.022604
      dyz     :     0.002554
      dx2y2   :     0.013250
      dxy     :     0.012405
      f0      :     0.000952  f :     0.002913
      f+1     :     0.000272
      f-1     :     0.000022
      f+2     :     0.000812
      f-2     :     0.001035
      f+3     :    -0.000107
      f-3     :    -0.000072
      g0      :    -0.000017  g :    -0.000852
      g+1     :     0.000092
      g-1     :     0.000031
      g+2     :    -0.000101
      g-2     :    -0.000128
      g+3     :    -0.000075
      g-3     :     0.000236
      g+4     :    -0.000208
      g-4     :    -0.000682
      h0      :    -0.000058  h :    -0.000571
      h+1     :    -0.000013
      h-1     :    -0.000022
      h+2     :     0.000004
      h-2     :    -0.000064
      h+3     :    -0.000077
      h-3     :    -0.000055
      h+4     :    -0.000078
      h-4     :     0.000000
      h+5     :    -0.000035
      h-5     :    -0.000173
  1 N s       :     3.940023  s :     3.940023
      pz      :     1.181398  p :     3.451649
      px      :     1.170125
      py      :     1.100126
      dz2     :     0.003489  d :     0.050951
      dxz     :     0.010271
      dyz     :     0.004428
      dx2y2   :     0.019491
      dxy     :     0.013271
      f0      :    -0.000108  f :    -0.002892
      f+1     :    -0.000324
      f-1     :     0.000233
      f+2     :    -0.000349
      f-2     :     0.000017
      f+3     :     0.000037
      f-3     :    -0.002397
      g0      :    -0.000110  g :    -0.004118
      g+1     :     0.000141
      g-1     :    -0.000548
      g+2     :    -0.000353
      g-2     :    -0.000251
      g+3     :    -0.000417
      g-3     :    -0.000265
      g+4     :    -0.002044
      g-4     :    -0.000271
      h0      :    -0.000098  h :    -0.001408
      h+1     :    -0.000022
      h-1     :    -0.000042
      h+2     :    -0.000137
      h-2     :    -0.000033
      h+3     :    -0.000113
      h-3     :    -0.000164
      h+4     :    -0.000092
      h-4     :    -0.000121
      h+5     :     0.000023
      h-5     :    -0.000609
  2 Nas       :     4.110645  s :     4.110645
      pz      :     2.026598  p :     6.139321
      px      :     2.040011
      py      :     2.072712
      dz2     :     0.009654  d :     0.053689
      dxz     :     0.002678
      dyz     :     0.010148
      dx2y2   :     0.015378
      dxy     :     0.015831
      f0      :     0.000634  f :     0.007432
      f+1     :     0.000548
      f-1     :     0.001939
      f+2     :     0.000451
      f-2     :     0.000449
      f+3     :     0.002411
      f-3     :     0.001000
      g0      :     0.000169  g :     0.001138
      g+1     :     0.000023
      g-1     :     0.000151
      g+2     :     0.000114
      g-2     :     0.000207
      g+3     :     0.000124
      g-3     :     0.000008
      g+4     :     0.000155
      g-4     :     0.000187

SPIN
  0 C s       :     0.000000  s :     0.000000
      pz      :     0.000000  p :    -0.000000
      px      :    -0.000000
      py      :    -0.000000
      dz2     :    -0.000000  d :    -0.000000
      dxz     :     0.000000
      dyz     :     0.000000
      dx2y2   :    -0.000000
      dxy     :    -0.000000
      f0      :     0.000000  f :    -0.000000
      f+1     :    -0.000000
      f-1     :    -0.000000
      f+2     :     0.000000
      f-2     :     0.000000
      f+3     :     0.000000
      f-3     :    -0.000000
      g0      :    -0.000000  g :    -0.000000
      g+1     :     0.000000
      g-1     :     0.000000
      g+2     :    -0.000000
      g-2     :     0.000000
      g+3     :     0.000000
      g-3     :    -0.000000
      g+4     :     0.000000
      g-4     :    -0.000000
      h0      :     0.000000  h :    -0.000000
      h+1     :    -0.000000
      h-1     :     0.000000
      h+2     :     0.000000
      h-2     :    -0.000000
      h+3     :    -0.000000
      h-3     :     0.000000
      h+4     :     0.000000
      h-4     :    -0.000000
      h+5     :     0.000000
      h-5     :    -0.000000
  1 N s       :     0.000000  s :     0.000000
      pz      :    -0.000000  p :    -0.000000
      px      :    -0.000000
      py      :    -0.000000
      dz2     :    -0.000000  d :    -0.000000
      dxz     :     0.000000
      dyz     :     0.000000
      dx2y2   :    -0.000000
      dxy     :    -0.000000
      f0      :     0.000000  f :    -0.000000
      f+1     :    -0.000000
      f-1     :    -0.000000
      f+2     :    -0.000000
      f-2     :     0.000000
      f+3     :     0.000000
      f-3     :    -0.000000
      g0      :     0.000000  g :     0.000000
      g+1     :    -0.000000
      g-1     :     0.000000
      g+2     :     0.000000
      g-2     :     0.000000
      g+3     :    -0.000000
      g-3     :     0.000000
      g+4     :     0.000000
      g-4     :     0.000000
      h0      :     0.000000  h :    -0.000000
      h+1     :     0.000000
      h-1     :     0.000000
      h+2     :     0.000000
      h-2     :    -0.000000
      h+3     :    -0.000000
      h-3     :    -0.000000
      h+4     :    -0.000000
      h-4     :    -0.000000
      h+5     :    -0.000000
      h-5     :    -0.000000
  2 Nas       :     0.000000  s :     0.000000
      pz      :    -0.000000  p :     0.000000
      px      :     0.000000
      py      :     0.000000
      dz2     :    -0.000000  d :     0.000000
      dxz     :    -0.000000
      dyz     :     0.000000
      dx2y2   :    -0.000000
      dxy     :     0.000000
      f0      :     0.000000  f :     0.000000
      f+1     :     0.000000
      f-1     :     0.000000
      f+2     :     0.000000
      f-2     :    -0.000000
      f+3     :     0.000000
      f-3     :    -0.000000
      g0      :     0.000000  g :     0.000000
      g+1     :    -0.000000
      g-1     :     0.000000
      g+2     :     0.000000
      g-2     :     0.000000
      g+3     :    -0.000000
      g-3     :    -0.000000
      g+4     :     0.000000
      g-4     :    -0.000000


                     *******************************
                     * LOEWDIN POPULATION ANALYSIS *
                     *******************************

-------------------------------------------
LOEWDIN ATOMIC CHARGES AND SPIN POPULATIONS
-------------------------------------------
   0 C :   -0.506707    0.000000
   1 N :   -0.536875   -0.000000
   2 Na:    1.043582   -0.000000

----------------------------------------------------
LOEWDIN REDUCED ORBITAL CHARGES AND SPIN POPULATIONS
----------------------------------------------------
CHARGE
  0 C s       :     3.067982  s :     3.067982
      pz      :     0.679683  p :     2.647256
      px      :     1.175453
      py      :     0.792121
      dz2     :     0.066312  d :     0.468583
      dxz     :     0.086169
      dyz     :     0.014621
      dx2y2   :     0.119047
      dxy     :     0.182435
      f0      :     0.015752  f :     0.167091
      f+1     :     0.021829
      f-1     :     0.011493
      f+2     :     0.010853
      f-2     :     0.015539
      f+3     :     0.045831
      f-3     :     0.045793
      g0      :     0.005642  g :     0.087960
      g+1     :     0.006850
      g-1     :     0.002649
      g+2     :     0.003023
      g-2     :     0.013367
      g+3     :     0.001916
      g-3     :     0.006054
      g+4     :     0.035115
      g-4     :     0.013344
      h0      :     0.002626  h :     0.067836
      h+1     :     0.004365
      h-1     :     0.003551
      h+2     :     0.000289
      h-2     :     0.005175
      h+3     :     0.006085
      h-3     :     0.007484
      h+4     :     0.004222
      h-4     :     0.000434
      h+5     :     0.017826
      h-5     :     0.015779
  1 N s       :     3.193127  s :     3.193127
      pz      :     1.018358  p :     3.577205
      px      :     1.437580
      py      :     1.121267
      dz2     :     0.058308  d :     0.342672
      dxz     :     0.038368
      dyz     :     0.014711
      dx2y2   :     0.125718
      dxy     :     0.105567
      f0      :     0.010710  f :     0.164500
      f+1     :     0.016611
      f-1     :     0.026119
      f+2     :     0.008948
      f-2     :     0.008767
      f+3     :     0.043276
      f-3     :     0.050068
      g0      :     0.009789  g :     0.136133
      g+1     :     0.003125
      g-1     :     0.008400
      g+2     :     0.020730
      g-2     :     0.007874
      g+3     :     0.003500
      g-3     :     0.006261
      g+4     :     0.031274
      g-4     :     0.045180
      h0      :     0.005938  h :     0.123239
      h+1     :     0.001828
      h-1     :     0.014141
      h+2     :     0.008600
      h-2     :     0.002825
      h+3     :     0.011354
      h-3     :     0.012763
      h+4     :     0.002312
      h-4     :     0.006441
      h+5     :     0.032804
      h-5     :     0.024232
  2 Nas       :     3.665772  s :     3.665772
      pz      :     1.944707  p :     6.016997
      px      :     1.996559
      py      :     2.075731
      dz2     :     0.026295  d :     0.148748
      dxz     :     0.006139
      dyz     :     0.022268
      dx2y2   :     0.044076
      dxy     :     0.049969
      f0      :     0.007258  f :     0.078964
      f+1     :     0.005290
      f-1     :     0.014137
      f+2     :     0.003176
      f-2     :     0.006022
      f+3     :     0.019487
      f-3     :     0.023594
      g0      :     0.003355  g :     0.045938
      g+1     :     0.001502
      g-1     :     0.005828
      g+2     :     0.004216
      g-2     :     0.004725
      g+3     :     0.002861
      g-3     :     0.000145
      g+4     :     0.012062
      g-4     :     0.011244

SPIN
  0 C s       :     0.000000  s :     0.000000
      pz      :    -0.000000  p :     0.000000
      px      :     0.000000
      py      :     0.000000
      dz2     :    -0.000000  d :    -0.000000
      dxz     :     0.000000
      dyz     :     0.000000
      dx2y2   :     0.000000
      dxy     :    -0.000000
      f0      :     0.000000  f :     0.000000
      f+1     :    -0.000000
      f-1     :    -0.000000
      f+2     :     0.000000
      f-2     :     0.000000
      f+3     :     0.000000
      f-3     :     0.000000
      g0      :    -0.000000  g :     0.000000
      g+1     :    -0.000000
      g-1     :     0.000000
      g+2     :     0.000000
      g-2     :     0.000000
      g+3     :     0.000000
      g-3     :     0.000000
      g+4     :     0.000000
      g-4     :     0.000000
      h0      :    -0.000000  h :    -0.000000
      h+1     :     0.000000
      h-1     :     0.000000
      h+2     :     0.000000
      h-2     :    -0.000000
      h+3     :    -0.000000
      h-3     :     0.000000
      h+4     :     0.000000
      h-4     :    -0.000000
      h+5     :     0.000000
      h-5     :    -0.000000
  1 N s       :     0.000000  s :     0.000000
      pz      :     0.000000  p :    -0.000000
      px      :    -0.000000
      py      :    -0.000000
      dz2     :    -0.000000  d :    -0.000000
      dxz     :    -0.000000
      dyz     :    -0.000000
      dx2y2   :    -0.000000
      dxy     :    -0.000000
      f0      :    -0.000000  f :    -0.000000
      f+1     :    -0.000000
      f-1     :     0.000000
      f+2     :    -0.000000
      f-2     :     0.000000
      f+3     :     0.000000
      f-3     :    -0.000000
      g0      :     0.000000  g :     0.000000
      g+1     :     0.000000
      g-1     :     0.000000
      g+2     :     0.000000
      g-2     :     0.000000
      g+3     :     0.000000
      g-3     :     0.000000
      g+4     :     0.000000
      g-4     :     0.000000
      h0      :     0.000000  h :     0.000000
      h+1     :    -0.000000
      h-1     :     0.000000
      h+2     :     0.000000
      h-2     :    -0.000000
      h+3     :    -0.000000
      h-3     :    -0.000000
      h+4     :    -0.000000
      h-4     :     0.000000
      h+5     :     0.000000
      h-5     :    -0.000000
  2 Nas       :    -0.000000  s :    -0.000000
      pz      :     0.000000  p :     0.000000
      px      :    -0.000000
      py      :     0.000000
      dz2     :    -0.000000  d :    -0.000000
      dxz     :    -0.000000
      dyz     :    -0.000000
      dx2y2   :    -0.000000
      dxy     :    -0.000000
      f0      :     0.000000  f :     0.000000
      f+1     :     0.000000
      f-1     :    -0.000000
      f+2     :    -0.000000
      f-2     :     0.000000
      f+3     :     0.000000
      f-3     :    -0.000000
      g0      :    -0.000000  g :     0.000000
      g+1     :     0.000000
      g-1     :    -0.000000
      g+2     :     0.000000
      g-2     :    -0.000000
      g+3     :    -0.000000
      g-3     :     0.000000
      g+4     :     0.000000
      g-4     :    -0.000000


                      *****************************
                      * MAYER POPULATION ANALYSIS *
                      *****************************

  NA   - Mulliken gross atomic population
  ZA   - Total nuclear charge
  QA   - Mulliken gross atomic charge
  VA   - Mayer's total valence
  BVA  - Mayer's bonded valence
  FA   - Mayer's free valence

  ATOM       NA         ZA         QA         VA         BVA        FA
  0 C      6.2536     6.0000    -0.2536     2.6401     2.6401    -0.0000
  1 N      7.4342     7.0000    -0.4342     2.7830     2.7830    -0.0000
  2 Na    10.3122    11.0000     0.6878     0.4994     0.4994    -0.0000

  Mayer bond orders larger than 0.1
B(  0-C ,  1-N ) :   2.4618 B(  0-C ,  2-Na) :   0.1782 B(  1-N ,  2-Na) :   0.3212 


-------
TIMINGS
-------

Total SCF time: 0 days 0 hours 15 min 35 sec 

Total time                  ....     935.239 sec
Sum of individual times     ....     934.271 sec  ( 99.9%)

Fock matrix formation       ....     930.861 sec  ( 99.5%)
  XC integration            ....      15.838 sec  (  1.7% of F)
    Basis function eval.    ....       1.135 sec  (  7.2% of XC)
    Density eval.           ....       3.289 sec  ( 20.8% of XC)
    XC-Functional eval.     ....       0.145 sec  (  0.9% of XC)
    XC-Potential eval.      ....      10.590 sec  ( 66.9% of XC)
Diagonalization             ....       1.409 sec  (  0.2%)
Density matrix formation    ....       0.022 sec  (  0.0%)
Population analysis         ....       0.094 sec  (  0.0%)
Initial guess               ....       0.677 sec  (  0.1%)
Orbital Transformation      ....       0.000 sec  (  0.0%)
Orbital Orthonormalization  ....       0.000 sec  (  0.0%)
DIIS solution               ....       0.828 sec  (  0.1%)
Grid generation             ....       0.380 sec  (  0.0%)

-------------------------   --------------------
FINAL SINGLE POINT ENERGY      -254.975095741395
-------------------------   --------------------


                            ***************************************
                            *     ORCA property calculations      *
                            ***************************************

                                    ---------------------
                                    Active property flags
                                    ---------------------
   (+) Dipole Moment


------------------------------------------------------------------------------
                       ORCA ELECTRIC PROPERTIES CALCULATION
------------------------------------------------------------------------------

Dipole Moment Calculation                       ... on
Quadrupole Moment Calculation                   ... off
Polarizability Calculation                      ... off
GBWName                                         ... nacn_pbe_-0001_y.gbw
Electron density file                           ... nacn_pbe_-0001_y.scfp.tmp
The origin for moment calculation is the CENTER OF MASS  = (-0.022120, -0.040278  0.000000)

-------------
DIPOLE MOMENT
-------------
                                X             Y             Z
Electronic contribution:     -2.30629      -3.86620      -0.00000
Nuclear contribution   :      0.53106       0.96800       0.00000
                        -----------------------------------------
Total Dipole Moment    :     -1.77523      -2.89819      -0.00000
                        -----------------------------------------
Magnitude (a.u.)       :      3.39867
Magnitude (Debye)      :      8.63873



--------------------
Rotational spectrum 
--------------------
 
Rotational constants in cm-1:     1.854688     0.270089     0.235757 
Rotational constants in MHz : 55602.151725  8097.075355  7067.822217 

 Dipole components along the rotational axes: 
x,y,z [a.u.] :     3.397008     0.106300    -0.000000 
x,y,z [Debye]:     8.634508     0.270193    -0.000000 

 

Timings for individual modules:

Sum of individual times         ...      939.282 sec (=  15.655 min)
GTO integral calculation        ...        2.871 sec (=   0.048 min)   0.3 %
SCF iterations                  ...      936.411 sec (=  15.607 min)  99.7 %
                             ****ORCA TERMINATED NORMALLY****
TOTAL RUN TIME: 0 days 0 hours 15 minutes 41 seconds 974 msec
