
                                 *****************
                                 * O   R   C   A *
                                 *****************

           --- An Ab Initio, DFT and Semiempirical electronic structure package ---

                  #######################################################
                  #                        -***-                        #
                  #          Department of theory and spectroscopy      #
                  #               Directorship: Frank Neese             #
                  #        Max Planck Institute fuer Kohlenforschung    #
                  #                Kaiser Wilhelm Platz 1               #
                  #                 D-45470 Muelheim/Ruhr               #
                  #                      Germany                        #
                  #                                                     #
                  #                  All rights reserved                #
                  #                        -***-                        #
                  #######################################################


                         Program Version 4.1.2  - RELEASE  -


 With contributions from (in alphabetic order):
   Daniel Aravena         : Magnetic Properties
   Michael Atanasov       : Ab Initio Ligand Field Theory
   Alexander A. Auer      : GIAO ZORA
   Ute Becker             : Parallelization
   Giovanni Bistoni       : ED, Open-shell LED
   Martin Brehm           : Molecular dynamics
   Dmytro Bykov           : SCF Hessian
   Vijay G. Chilkuri      : MRCI spin determinant printing
   Dipayan Datta          : RHF DLPNO-CCSD density
   Achintya Kumar Dutta   : EOM-CC, STEOM-CC
   Dmitry Ganyushin       : Spin-Orbit,Spin-Spin,Magnetic field MRCI
   Miquel Garcia          : C-PCM Hessian
   Yang Guo               : DLPNO-NEVPT2, CIM, IAO-localization
   Andreas Hansen         : Spin unrestricted coupled pair/coupled cluster methods
   Benjamin Helmich-Paris : CASSCF linear response (MC-RPA)
   Lee Huntington         : MR-EOM, pCC
   Robert Izsak           : Overlap fitted RIJCOSX, COSX-SCS-MP3, EOM
   Christian Kollmar      : KDIIS, OOCD, Brueckner-CCSD(T), CCSD density
   Simone Kossmann        : Meta GGA functionals, TD-DFT gradient, OOMP2, MP2 Hessian
   Martin Krupicka        : AUTO-CI
   Lucas Lang             : DCDCAS
   Dagmar Lenk            : GEPOL surface, SMD
   Dimitrios Liakos       : Extrapolation schemes; parallel MDCI
   Dimitrios Manganas     : ROCIS; embedding schemes
   Dimitrios Pantazis     : SARC Basis sets
   Taras Petrenko         : DFT Hessian,TD-DFT gradient, ASA, ECA, R-Raman, ABS, FL, XAS/XES, NRVS
   Peter Pinski           : DLPNO-MP2, DLPNO-MP2 Gradient
   Christoph Reimann      : Effective Core Potentials
   Marius Retegan         : Local ZFS, SOC
   Christoph Riplinger    : Optimizer, TS searches, QM/MM, DLPNO-CCSD(T), (RO)-DLPNO pert. Triples
   Tobias Risthaus        : Range-separated hybrids, TD-DFT gradient, RPA, STAB
   Michael Roemelt        : Restricted open shell CIS
   Masaaki Saitow         : Open-shell DLPNO
   Barbara Sandhoefer     : DKH picture change effects
   Avijit Sen             : IP-ROCIS
   Kantharuban Sivalingam : CASSCF convergence, NEVPT2, FIC-MRCI
   Bernardo de Souza      : ESD, SOC TD-DFT
   Georgi Stoychev        : AutoAux, RI-MP2 NMR
   Willem Van den Heuvel  : Paramagnetic NMR
   Boris Wezisla          : Elementary symmetry handling
   Frank Wennmohs         : Technical directorship


 We gratefully acknowledge several colleagues who have allowed us to
 interface, adapt or use parts of their codes:
   Stefan Grimme, W. Hujo, H. Kruse,             : VdW corrections, initial TS optimization,
                  C. Bannwarth                     DFT functionals, gCP, sTDA/sTD-DF
   Ed Valeev                                     : LibInt (2-el integral package), F12 methods
   Garnet Chan, S. Sharma, J. Yang, R. Olivares  : DMRG
   Ulf Ekstrom                                   : XCFun DFT Library
   Mihaly Kallay                                 : mrcc  (arbitrary order and MRCC methods)
   Andreas Klamt, Michael Diedenhofen            : otool_cosmo (COSMO solvation model)
   Jiri Pittner, Ondrej Demel                    : Mk-CCSD
   Frank Weinhold                                : gennbo (NPA and NBO analysis)
   Christopher J. Cramer and Donald G. Truhlar   : smd solvation model
   Lars Goerigk                                  : TD-DFT with DH, B97 family of functionals
   V. Asgeirsson, H. Jonsson                     : NEB implementation
   FAccTs GmbH                                   : IRC, NEB, NEB-TS, Multilevel


 Your calculation uses the libint2 library for the computation of 2-el integrals
 For citations please refer to: http://libint.valeyev.net

 This ORCA versions uses:
   CBLAS   interface :  Fast vector & matrix operations
   LAPACKE interface :  Fast linear algebra routines
   SCALAPACK package :  Parallel linear algebra routines


----- Orbital basis set information -----
Your calculation utilizes the basis: aug-pc-4
   H, C-F              : F. Jensen, J. Chem. Phys. 115, 9113 (2001).
                         F. Jensen, J. Chem. Phys. 116, 7372 (2002).
                         F. Jensen, J. Chem. Phys. 117, 9234 (2002).
   Si-Cl               : F. Jensen, T. Helgaker, J. Chem. Phys. 121, 3463 (2004).
   He-B, Ne-Mg, Al, Ar : F. Jensen, J. Phys. Chem. A 111, 11198 (2007).
   K, Ca, Ga-Kr        : F. Jensen, J. Chem. Phys. 136, 094110 (2012).
   Sc-Zn               : F. Jensen, J. Chem. Phys. 138, 014107 (2013).

================================================================================
                                        WARNINGS
                       Please study these warnings very carefully!
================================================================================


INFO   : the flag for use of LIBINT has been found!

================================================================================
                                       INPUT FILE
================================================================================
NAME = nacn_pbe_+0001_x.inp
|  1> !uks pbe nori aug-pc-4 grid5 nofinalgrid verytightscf
|  2> 
|  3> %maxcore 6000
|  4> 
|  5> %pal nprocs 4 end
|  6> 
|  7> %scf
|  8> 	efield 0.001, 0.0, 0.0
|  9> 	maxiter 200
| 10> end
| 11> 
| 12> * xyz 0 1
| 13> C 1.0848000000 0.6433000000 0.0000000000
| 14> N 0.0000000000 1.1328000000 0.0000000000
| 15> Na -0.5917000000 -1.0717000000 0.0000000000
| 16> *
| 17> 
| 18>                          ****END OF INPUT****
================================================================================

                       ****************************
                       * Single Point Calculation *
                       ****************************

---------------------------------
CARTESIAN COORDINATES (ANGSTROEM)
---------------------------------
  C      1.084800    0.643300    0.000000
  N      0.000000    1.132800    0.000000
  Na    -0.591700   -1.071700    0.000000

----------------------------
CARTESIAN COORDINATES (A.U.)
----------------------------
  NO LB      ZA    FRAG     MASS         X           Y           Z
   0 C     6.0000    0    12.011    2.049975    1.215661    0.000000
   1 N     7.0000    0    14.007    0.000000    2.140682    0.000000
   2 Na   11.0000    0    22.990   -1.118151   -2.025219    0.000000

--------------------------------
INTERNAL COORDINATES (ANGSTROEM)
--------------------------------
 C      0   0   0     0.000000000000     0.00000000     0.00000000
 N      1   0   0     1.190126585704     0.00000000     0.00000000
 Na     2   1   0     2.282526919885    80.73781782     0.00000000

---------------------------
INTERNAL COORDINATES (A.U.)
---------------------------
 C      0   0   0     0.000000000000     0.00000000     0.00000000
 N      1   0   0     2.249013311680     0.00000000     0.00000000
 Na     2   1   0     4.313350771886    80.73781782     0.00000000

---------------------
BASIS SET INFORMATION
---------------------
There are 3 groups of distinct atoms

 Group   1 Type C   : 28s12p7d4f3g2h contracted to 9s8p7d4f3g2h pattern {11101111111/51111111/1111111/1111/111/11}
 Group   2 Type N   : 27s12p7d4f3g2h contracted to 9s8p7d4f3g2h pattern {1191111111/51111111/1111111/1111/111/11}
 Group   3 Type Na  : 44s16p4d3f2g contracted to 8s6p4d3f2g pattern {15111311111/1111111/1111/111/11}

Atom   0C    basis set group =>   1
Atom   1N    basis set group =>   2
Atom   2Na   basis set group =>   3


           ************************************************************
           *        Program running with 4 parallel MPI-processes     *
           *              working on a common directory               *
           ************************************************************
------------------------------------------------------------------------------
                           ORCA GTO INTEGRAL CALCULATION
------------------------------------------------------------------------------

                         BASIS SET STATISTICS AND STARTUP INFO

 # of primitive gaussian shells          ...  180
 # of primitive gaussian functions       ...  502
 # of contracted shells                  ...   89
 # of contracted basis functions         ...  375
 Highest angular momentum                ...    5
 Maximum contraction depth               ...   15
 Integral package used                   ... LIBINT
 Integral threshhold            Thresh   ...  1.000e-12
 Primitive cut-off              TCut     ...  1.000e-14


------------------------------ INTEGRAL EVALUATION ----------------------------


 * One electron integrals 
 Pre-screening matrix                    ... done
 Shell pair data                         ... done (   0.002 sec)


An Electric Field will be added: 1.000e-03 0.000e+00 0.000e+00 au

  ... done adding electric field perturbation



           ************************************************************
           *        Program running with 4 parallel MPI-processes     *
           *              working on a common directory               *
           ************************************************************
-------------------------------------------------------------------------------
                                 ORCA SCF
-------------------------------------------------------------------------------

------------
SCF SETTINGS
------------
Hamiltonian:
 Density Functional     Method          .... DFT(GTOs)
 Exchange Functional    Exchange        .... PBE
   PBE kappa parameter   XKappa         ....  0.804000
   PBE mue parameter    XMuePBE         ....  0.219520
 Correlation Functional Correlation     .... PBE
   PBE beta parameter  CBetaPBE         ....  0.066725
 LDA part of GGA corr.  LDAOpt          .... PW91-LDA
 Gradients option       PostSCFGGA      .... off
   Density functional embedding theory  .... OFF
   NL short-range parameter             ....  6.400000


General Settings:
 Integral files         IntName         .... nacn_pbe_+0001_x
 Hartree-Fock type      HFTyp           .... UHF
 Total Charge           Charge          ....    0
 Multiplicity           Mult            ....    1
 Number of Electrons    NEL             ....   24
 Basis Dimension        Dim             ....  375
 Nuclear Repulsion      ENuc            ....     51.0890517879 Eh

Convergence Acceleration:
 DIIS                   CNVDIIS         .... on
   Start iteration      DIISMaxIt       ....    12
   Startup error        DIISStart       ....  0.200000
   # of expansion vecs  DIISMaxEq       ....     5
   Bias factor          DIISBfac        ....   1.050
   Max. coefficient     DIISMaxC        ....  10.000
 Newton-Raphson         CNVNR           .... off
 SOSCF                  CNVSOSCF        .... off
 Level Shifting         CNVShift        .... on
   Level shift para.    LevelShift      ....    0.2500
   Turn off err/grad.   ShiftErr        ....    0.0010
 Zerner damping         CNVZerner       .... off
 Static damping         CNVDamp         .... on
   Fraction old density DampFac         ....    0.7000
   Max. Damping (<1)    DampMax         ....    0.9800
   Min. Damping (>=0)   DampMin         ....    0.0000
   Turn off err/grad.   DampErr         ....    0.1000
 Fernandez-Rico         CNVRico         .... off

SCF Procedure:
 Maximum # iterations   MaxIter         ....   200
 SCF integral mode      SCFMode         .... Direct
   Integral package                     .... LIBINT
 Reset frequency        DirectResetFreq ....    20
 Integral Threshold     Thresh          ....  1.000e-12 Eh
 Primitive CutOff       TCut            ....  1.000e-14 Eh

Convergence Tolerance:
 Convergence Check Mode ConvCheckMode   .... Total+1el-Energy
 Convergence forced     ConvForced      .... 0
 Energy Change          TolE            ....  1.000e-09 Eh
 1-El. energy change                    ....  1.000e-06 Eh
 DIIS Error             TolErr          ....  1.000e-08


Diagonalization of the overlap matrix:
Smallest eigenvalue                        ... 8.473e-07
Time for diagonalization                   ...    0.025 sec
Threshold for overlap eigenvalues          ... 1.000e-08
Number of eigenvalues below threshold      ... 0
Time for construction of square roots      ...    0.025 sec
Total time needed                          ...    0.051 sec

-------------------
DFT GRID GENERATION
-------------------

General Integration Accuracy     IntAcc      ...  5.010
Radial Grid Type                 RadialGrid  ... Gauss-Chebyshev
Angular Grid (max. acc.)         AngularGrid ... Lebedev-434
Angular grid pruning method      GridPruning ... 3 (G Style)
Weight generation scheme         WeightScheme... Becke
Basis function cutoff            BFCut       ...    1.0000e-12
Integration weight cutoff        WCut        ...    1.0000e-14
Grids for H and He will be reduced by one unit

# of grid points (after initial pruning)     ...  32548 (   0.0 sec)
# of grid points (after weights+screening)   ...  32341 (   0.0 sec)
nearest neighbour list constructed           ...    0.0 sec
Grid point re-assignment to atoms done       ...    0.0 sec
Grid point division into batches done        ...    0.3 sec
Reduced shell lists constructed in    0.4 sec

Total number of grid points                  ...    32341
Total number of batches                      ...      507
Average number of points per batch           ...       63
Average number of grid points per atom       ...    10780
Average number of shells per batch           ...    65.92 (74.07%)
Average number of basis functions per batch  ...   283.30 (75.55%)
Average number of large shells per batch     ...    59.16 (89.74%)
Average number of large basis fcns per batch ...   255.62 (90.23%)
Maximum spatial batch extension              ...  20.76, 17.88, 21.65 au
Average spatial batch extension              ...   1.08,  1.11,  1.15 au

Time for grid setup =    0.394 sec

------------------------------
INITIAL GUESS: MODEL POTENTIAL
------------------------------
Loading Hartree-Fock densities                     ... done
Calculating cut-offs                               ... done
Setting up the integral package                    ... done
Initializing the effective Hamiltonian             ... done
Starting the Coulomb interaction                   ... done (   0.0 sec)
Reading the grid                                   ... done
Mapping shells                                     ... done
Starting the XC term evaluation                    ... done (   0.5 sec)
  promolecular density results
     # of electrons  =     23.999998496
     EX              =    -25.467102563
     EC              =     -0.781783322
     EX+EC           =    -26.248885885
Transforming the Hamiltonian                       ... done (   0.0 sec)
Diagonalizing the Hamiltonian                      ... done (   0.0 sec)
Back transforming the eigenvectors                 ... done (   0.0 sec)
Now organizing SCF variables                       ... done
                      ------------------
                      INITIAL GUESS DONE (   1.1 sec)
                      ------------------
--------------
SCF ITERATIONS
--------------
ITER       Energy         Delta-E        Max-DP      RMS-DP      [F,P]     Damp
               ***  Starting incremental Fock matrix formation  ***
  0   -254.8450397783   0.000000000000 0.02651892  0.00033207  0.2706362 0.7000
  1   -254.9099662328  -0.064926454463 0.02532176  0.00023178  0.0903449 0.7000
                               ***Turning on DIIS***
  2   -254.9278670557  -0.017900822923 0.03538577  0.00037056  0.0403347 0.0000
  3   -254.9595552236  -0.031688167867 0.02038914  0.00017389  0.0477947 0.0000
  4   -254.9673993793  -0.007844155725 0.00460605  0.00004770  0.0439491 0.0000
  5   -254.9701449494  -0.002745570058 0.00484615  0.00003225  0.0129752 0.0000
  6   -254.9704232214  -0.000278272064 0.00290147  0.00001770  0.0027748 0.0000
  7   -254.9704493620  -0.000026140550 0.00237513  0.00001510  0.0009914 0.0000
  8   -254.9704572660  -0.000007904030 0.00026106  0.00000271  0.0002810 0.0000
  9   -254.9704574525  -0.000000186468 0.00013802  0.00000094  0.0002649 0.0000
 10   -254.9704575462  -0.000000093732 0.00004086  0.00000022  0.0000201 0.0000
 11   -254.9704575470  -0.000000000832 0.00001440  0.00000008  0.0000055 0.0000
 12   -254.9704575472  -0.000000000130 0.00000136  0.00000002  0.0000011 0.0000
 13   -254.9704575472  -0.000000000001 0.00000170  0.00000003  0.0000003 0.0000
 14   -254.9704575472   0.000000000004 0.00000581  0.00000007  0.0000003 0.0000
                 **** Energy Check signals convergence ****

               *****************************************************
               *                     SUCCESS                       *
               *           SCF CONVERGED AFTER  15 CYCLES          *
               *****************************************************


----------------
TOTAL SCF ENERGY
----------------

Total Energy       :         -254.97045755 Eh           -6938.09888 eV

Components:
Nuclear Repulsion  :           51.08905179 Eh            1390.20378 eV
Electronic Energy  :         -306.05950934 Eh           -8328.30265 eV
One Electron Energy:         -455.54321663 Eh          -12395.96112 eV
Two Electron Energy:          149.48370730 Eh            4067.65847 eV

Virial components:
Potential Energy   :         -509.37878468 Eh          -13860.90141 eV
Kinetic Energy     :          254.40832714 Eh            6922.80253 eV
Virial Ratio       :            2.00220956


DFT components:
N(Alpha)           :       11.999998239775 electrons
N(Beta)            :       11.999998239775 electrons
N(Total)           :       23.999996479550 electrons
E(X)               :      -25.696849645837 Eh       
E(C)               :       -0.798981388159 Eh       
E(XC)              :      -26.495831033995 Eh       
DFET-embed. en.    :        0.000000000000 Eh       

---------------
SCF CONVERGENCE
---------------

  Last Energy change         ...   -6.8212e-13  Tolerance :   1.0000e-09
  Last MAX-Density change    ...    7.0496e-06  Tolerance :   1.0000e-08
  Last RMS-Density change    ...    9.4502e-08  Tolerance :   1.0000e-09
  Last DIIS Error            ...    3.9267e-08  Tolerance :   1.0000e-08

             **** THE GBW FILE WAS UPDATED (nacn_pbe_+0001_x.gbw) ****
             **** DENSITY FILE WAS UPDATED (nacn_pbe_+0001_x.scfp.tmp) ****
             **** ENERGY FILE WAS UPDATED (nacn_pbe_+0001_x.en.tmp) ****
----------------------
UHF SPIN CONTAMINATION
----------------------

Warning: in a DFT calculation there is little theoretical justification to 
         calculate <S**2> as in Hartree-Fock theory. We will do it anyways
         but you should keep in mind that the values have only limited relevance

Expectation value of <S**2>     :     0.000000
Ideal value S*(S+1) for S=0.0   :     0.000000
Deviation                       :     0.000000

----------------
ORBITAL ENERGIES
----------------
                 SPIN UP ORBITALS
  NO   OCC          E(Eh)            E(eV) 
   0   1.0000     -37.942790     -1032.4758 
   1   1.0000     -13.918778      -378.7492 
   2   1.0000      -9.838032      -267.7065 
   3   1.0000      -2.110476       -57.4290 
   4   1.0000      -1.086839       -29.5744 
   5   1.0000      -1.086354       -29.5612 
   6   1.0000      -1.084881       -29.5211 
   7   1.0000      -0.751044       -20.4370 
   8   1.0000      -0.317363        -8.6359 
   9   1.0000      -0.259359        -7.0575 
  10   1.0000      -0.244590        -6.6556 
  11   1.0000      -0.197336        -5.3698 
  12   0.0000      -0.083669        -2.2767 
  13   0.0000      -0.016888        -0.4595 
  14   0.0000      -0.013390        -0.3644 
  15   0.0000      -0.007637        -0.2078 
  16   0.0000       0.005310         0.1445 
  17   0.0000       0.013430         0.3654 
  18   0.0000       0.014420         0.3924 
  19   0.0000       0.020823         0.5666 
  20   0.0000       0.024621         0.6700 
  21   0.0000       0.027517         0.7488 
  22   0.0000       0.032922         0.8959 
  23   0.0000       0.036336         0.9888 
  24   0.0000       0.036411         0.9908 
  25   0.0000       0.036877         1.0035 
  26   0.0000       0.040604         1.1049 
  27   0.0000       0.050801         1.3824 
  28   0.0000       0.059449         1.6177 
  29   0.0000       0.060556         1.6478 
  30   0.0000       0.062794         1.7087 
  31   0.0000       0.066001         1.7960 
  32   0.0000       0.066113         1.7990 
  33   0.0000       0.075023         2.0415 
  34   0.0000       0.075747         2.0612 
  35   0.0000       0.078970         2.1489 
  36   0.0000       0.080982         2.2036 
  37   0.0000       0.081023         2.2048 
  38   0.0000       0.084856         2.3091 
  39   0.0000       0.094308         2.5662 
  40   0.0000       0.099095         2.6965 
  41   0.0000       0.099268         2.7012 
  42   0.0000       0.104254         2.8369 
  43   0.0000       0.108840         2.9617 
  44   0.0000       0.110411         3.0044 
  45   0.0000       0.115527         3.1437 
  46   0.0000       0.121612         3.3092 
  47   0.0000       0.124896         3.3986 
  48   0.0000       0.130564         3.5528 
  49   0.0000       0.131179         3.5696 
  50   0.0000       0.133564         3.6345 
  51   0.0000       0.133747         3.6394 
  52   0.0000       0.136646         3.7183 
  53   0.0000       0.137591         3.7440 
  54   0.0000       0.144295         3.9265 
  55   0.0000       0.147938         4.0256 
  56   0.0000       0.152639         4.1535 
  57   0.0000       0.163546         4.4503 
  58   0.0000       0.172219         4.6863 
  59   0.0000       0.174777         4.7559 
  60   0.0000       0.180975         4.9246 
  61   0.0000       0.184712         5.0263 
  62   0.0000       0.195931         5.3316 
  63   0.0000       0.202126         5.5001 
  64   0.0000       0.205869         5.6020 
  65   0.0000       0.211699         5.7606 
  66   0.0000       0.215941         5.8760 
  67   0.0000       0.231704         6.3050 
  68   0.0000       0.238305         6.4846 
  69   0.0000       0.249172         6.7803 
  70   0.0000       0.250477         6.8158 
  71   0.0000       0.262554         7.1444 
  72   0.0000       0.264732         7.2037 
  73   0.0000       0.265982         7.2377 
  74   0.0000       0.277400         7.5484 
  75   0.0000       0.277806         7.5595 
  76   0.0000       0.287324         7.8185 
  77   0.0000       0.292732         7.9656 
  78   0.0000       0.293407         7.9840 
  79   0.0000       0.300461         8.1760 
  80   0.0000       0.309982         8.4350 
  81   0.0000       0.327659         8.9161 
  82   0.0000       0.334757         9.1092 
  83   0.0000       0.348591         9.4857 
  84   0.0000       0.368860        10.0372 
  85   0.0000       0.373159        10.1542 
  86   0.0000       0.380932        10.3657 
  87   0.0000       0.392615        10.6836 
  88   0.0000       0.396237        10.7821 
  89   0.0000       0.402412        10.9502 
  90   0.0000       0.407702        11.0941 
  91   0.0000       0.414116        11.2687 
  92   0.0000       0.425991        11.5918 
  93   0.0000       0.427771        11.6402 
  94   0.0000       0.428458        11.6589 
  95   0.0000       0.444510        12.0957 
  96   0.0000       0.454215        12.3598 
  97   0.0000       0.464574        12.6417 
  98   0.0000       0.465678        12.6717 
  99   0.0000       0.473130        12.8745 
 100   0.0000       0.484776        13.1914 
 101   0.0000       0.504067        13.7163 
 102   0.0000       0.519164        14.1272 
 103   0.0000       0.520077        14.1520 
 104   0.0000       0.533174        14.5084 
 105   0.0000       0.543061        14.7774 
 106   0.0000       0.554709        15.0944 
 107   0.0000       0.560235        15.2448 
 108   0.0000       0.567325        15.4377 
 109   0.0000       0.573053        15.5936 
 110   0.0000       0.575118        15.6498 
 111   0.0000       0.578336        15.7373 
 112   0.0000       0.590657        16.0726 
 113   0.0000       0.594016        16.1640 
 114   0.0000       0.611769        16.6471 
 115   0.0000       0.616143        16.7661 
 116   0.0000       0.621162        16.9027 
 117   0.0000       0.631313        17.1789 
 118   0.0000       0.639374        17.3983 
 119   0.0000       0.642937        17.4952 
 120   0.0000       0.647656        17.6236 
 121   0.0000       0.659334        17.9414 
 122   0.0000       0.661449        17.9989 
 123   0.0000       0.668503        18.1909 
 124   0.0000       0.678850        18.4724 
 125   0.0000       0.682197        18.5635 
 126   0.0000       0.687607        18.7107 
 127   0.0000       0.693191        18.8627 
 128   0.0000       0.702582        19.1182 
 129   0.0000       0.704316        19.1654 
 130   0.0000       0.711179        19.3522 
 131   0.0000       0.755348        20.5541 
 132   0.0000       0.767255        20.8781 
 133   0.0000       0.783628        21.3236 
 134   0.0000       0.792679        21.5699 
 135   0.0000       0.805627        21.9222 
 136   0.0000       0.832142        22.6437 
 137   0.0000       0.838286        22.8109 
 138   0.0000       0.849831        23.1251 
 139   0.0000       0.852030        23.1849 
 140   0.0000       0.882871        24.0241 
 141   0.0000       0.888514        24.1777 
 142   0.0000       0.893565        24.3152 
 143   0.0000       0.903019        24.5724 
 144   0.0000       0.911744        24.8098 
 145   0.0000       0.920080        25.0367 
 146   0.0000       0.931968        25.3601 
 147   0.0000       0.946955        25.7680 
 148   0.0000       0.969648        26.3855 
 149   0.0000       0.971299        26.4304 
 150   0.0000       0.979821        26.6623 
 151   0.0000       0.993849        27.0440 
 152   0.0000       1.013796        27.5868 
 153   0.0000       1.016433        27.6586 
 154   0.0000       1.022409        27.8212 
 155   0.0000       1.032931        28.1075 
 156   0.0000       1.042775        28.3754 
 157   0.0000       1.054219        28.6868 
 158   0.0000       1.078216        29.3397 
 159   0.0000       1.101069        29.9616 
 160   0.0000       1.111558        30.2470 
 161   0.0000       1.118474        30.4352 
 162   0.0000       1.125593        30.6289 
 163   0.0000       1.133798        30.8522 
 164   0.0000       1.161187        31.5975 
 165   0.0000       1.195490        32.5309 
 166   0.0000       1.234560        33.5941 
 167   0.0000       1.265701        34.4415 
 168   0.0000       1.266529        34.4640 
 169   0.0000       1.281612        34.8744 
 170   0.0000       1.304781        35.5049 
 171   0.0000       1.377374        37.4802 
 172   0.0000       1.385755        37.7083 
 173   0.0000       1.407468        38.2992 
 174   0.0000       1.451289        39.4916 
 175   0.0000       1.452195        39.5162 
 176   0.0000       1.484077        40.3838 
 177   0.0000       1.486542        40.4509 
 178   0.0000       1.502582        40.8873 
 179   0.0000       1.521258        41.3955 
 180   0.0000       1.522672        41.4340 
 181   0.0000       1.523653        41.4607 
 182   0.0000       1.560826        42.4722 
 183   0.0000       1.583929        43.1009 
 184   0.0000       1.591566        43.3087 
 185   0.0000       1.614438        43.9311 
 186   0.0000       1.628691        44.3189 
 187   0.0000       1.638283        44.5799 
 188   0.0000       1.650212        44.9046 
 189   0.0000       1.699098        46.2348 
 190   0.0000       1.704467        46.3809 
 191   0.0000       1.740042        47.3489 
 192   0.0000       1.759850        47.8880 
 193   0.0000       1.795327        48.8533 
 194   0.0000       1.834376        49.9159 
 195   0.0000       1.933145        52.6035 
 196   0.0000       1.975159        53.7468 
 197   0.0000       2.044184        55.6251 
 198   0.0000       2.052034        55.8387 
 199   0.0000       2.137013        58.1511 
 200   0.0000       2.160061        58.7782 
 201   0.0000       2.162093        58.8335 
 202   0.0000       2.198538        59.8253 
 203   0.0000       2.221556        60.4516 
 204   0.0000       2.228008        60.6272 
 205   0.0000       2.245137        61.0933 
 206   0.0000       2.290455        62.3265 
 207   0.0000       2.318957        63.1020 
 208   0.0000       2.366982        64.4089 
 209   0.0000       2.379948        64.7617 
 210   0.0000       2.453192        66.7547 
 211   0.0000       2.473321        67.3025 
 212   0.0000       2.623079        71.3776 
 213   0.0000       2.679226        72.9054 
 214   0.0000       2.767225        75.3000 
 215   0.0000       2.774664        75.5024 
 216   0.0000       3.061587        83.3100 
 217   0.0000       3.066373        83.4403 
 218   0.0000       3.105705        84.5105 
 219   0.0000       3.179015        86.5054 
 220   0.0000       3.181130        86.5629 
 221   0.0000       3.227150        87.8152 
 222   0.0000       3.286922        89.4417 
 223   0.0000       3.405685        92.6734 
 224   0.0000       3.781416       102.8975 
 225   0.0000       3.865574       105.1876 
 226   0.0000       3.874358       105.4267 
 227   0.0000       3.979139       108.2779 
 228   0.0000       3.979684       108.2927 
 229   0.0000       4.012851       109.1952 
 230   0.0000       4.014339       109.2357 
 231   0.0000       4.050094       110.2087 
 232   0.0000       4.072606       110.8212 
 233   0.0000       4.085005       111.1586 
 234   0.0000       4.094847       111.4265 
 235   0.0000       4.158269       113.1523 
 236   0.0000       4.165327       113.3443 
 237   0.0000       4.213939       114.6671 
 238   0.0000       4.228605       115.0662 
 239   0.0000       4.254674       115.7756 
 240   0.0000       4.276119       116.3591 
 241   0.0000       4.460254       121.3697 
 242   0.0000       4.483897       122.0130 
 243   0.0000       4.531854       123.3180 
 244   0.0000       4.588705       124.8650 
 245   0.0000       4.596883       125.0875 
 246   0.0000       4.725158       128.5781 
 247   0.0000       4.755307       129.3985 
 248   0.0000       4.784436       130.1911 
 249   0.0000       4.785108       130.2094 
 250   0.0000       4.797036       130.5340 
 251   0.0000       4.867876       132.4617 
 252   0.0000       4.909251       133.5875 
 253   0.0000       4.917285       133.8061 
 254   0.0000       5.025593       136.7533 
 255   0.0000       5.060420       137.7010 
 256   0.0000       5.142836       139.9437 
 257   0.0000       5.233551       142.4122 
 258   0.0000       5.269483       143.3899 
 259   0.0000       5.303565       144.3173 
 260   0.0000       5.344359       145.4274 
 261   0.0000       5.386955       146.5865 
 262   0.0000       5.590940       152.1372 
 263   0.0000       5.621781       152.9764 
 264   0.0000       5.634702       153.3280 
 265   0.0000       5.659310       153.9977 
 266   0.0000       5.700966       155.1312 
 267   0.0000       5.710677       155.3954 
 268   0.0000       5.972750       162.5268 
 269   0.0000       6.012434       163.6066 
 270   0.0000       6.089169       165.6947 
 271   0.0000       6.284992       171.0233 
 272   0.0000       6.334334       172.3660 
 273   0.0000       6.347739       172.7308 
 274   0.0000       6.378539       173.5689 
 275   0.0000       6.515820       177.3045 
 276   0.0000       6.664267       181.3439 
 277   0.0000       6.760831       183.9716 
 278   0.0000       6.840975       186.1524 
 279   0.0000       6.907703       187.9682 
 280   0.0000       6.981913       189.9875 
 281   0.0000       7.129962       194.0161 
 282   0.0000       7.234065       196.8489 
 283   0.0000       7.827638       213.0009 
 284   0.0000       8.130601       221.2449 
 285   0.0000       8.281109       225.3404 
 286   0.0000       8.323645       226.4979 
 287   0.0000       9.195038       250.2097 
 288   0.0000       9.337945       254.0984 
 289   0.0000       9.774926       265.9893 
 290   0.0000      10.181427       277.0507 
 291   0.0000      10.210959       277.8543 
 292   0.0000      10.237726       278.5827 
 293   0.0000      10.244515       278.7674 
 294   0.0000      10.358697       281.8745 
 295   0.0000      10.458105       284.5795 
 296   0.0000      10.463004       284.7128 
 297   0.0000      10.470544       284.9180 
 298   0.0000      10.535051       286.6733 
 299   0.0000      10.627748       289.1957 
 300   0.0000      10.628381       289.2130 
 301   0.0000      10.847757       295.1825 
 302   0.0000      10.848964       295.2153 
 303   0.0000      10.891814       296.3813 
 304   0.0000      11.068483       301.1887 
 305   0.0000      11.084427       301.6226 
 306   0.0000      11.366386       309.2951 
 307   0.0000      11.410315       310.4905 
 308   0.0000      11.469848       312.1104 
 309   0.0000      11.470290       312.1225 
 310   0.0000      11.502359       312.9951 
 311   0.0000      11.555717       314.4470 
 312   0.0000      11.582270       315.1696 
 313   0.0000      11.588598       315.3418 
 314   0.0000      11.627544       316.4016 
 315   0.0000      11.659094       317.2601 
 316   0.0000      11.723693       319.0179 
 317   0.0000      11.737764       319.4008 
 318   0.0000      11.748234       319.6857 
 319   0.0000      11.929916       324.6295 
 320   0.0000      11.933461       324.7260 
 321   0.0000      12.023160       327.1668 
 322   0.0000      12.025005       327.2170 
 323   0.0000      12.119891       329.7990 
 324   0.0000      12.134964       330.2092 
 325   0.0000      12.479961       339.5970 
 326   0.0000      12.509543       340.4020 
 327   0.0000      12.656370       344.3973 
 328   0.0000      12.685216       345.1823 
 329   0.0000      12.860192       349.9436 
 330   0.0000      12.986017       353.3675 
 331   0.0000      12.987657       353.4121 
 332   0.0000      13.542554       368.5116 
 333   0.0000      13.720458       373.3526 
 334   0.0000      13.743931       373.9914 
 335   0.0000      14.389178       391.5494 
 336   0.0000      14.411175       392.1480 
 337   0.0000      14.601279       397.3210 
 338   0.0000      14.617262       397.7559 
 339   0.0000      14.671630       399.2354 
 340   0.0000      15.020308       408.7234 
 341   0.0000      15.032896       409.0659 
 342   0.0000      15.387658       418.7195 
 343   0.0000      15.405064       419.1931 
 344   0.0000      15.577494       423.8852 
 345   0.0000      15.827131       430.6781 
 346   0.0000      15.882822       432.1936 
 347   0.0000      16.009133       435.6307 
 348   0.0000      16.744535       455.6420 
 349   0.0000      16.792189       456.9387 
 350   0.0000      16.997834       462.5346 
 351   0.0000      17.074697       464.6261 
 352   0.0000      17.699284       481.6220 
 353   0.0000      17.724644       482.3121 
 354   0.0000      17.739897       482.7271 
 355   0.0000      18.673178       508.1230 
 356   0.0000      19.088184       519.4159 
 357   0.0000      19.127085       520.4744 
 358   0.0000      21.476231       584.3980 
 359   0.0000      24.031778       653.9379 
 360   0.0000      26.152411       711.6433 
 361   0.0000      26.318348       716.1587 
 362   0.0000      27.940564       760.3014 
 363   0.0000      31.967331       869.8753 
 364   0.0000      32.034482       871.7026 
 365   0.0000      32.917047       895.7184 
 366   0.0000      32.926370       895.9721 
 367   0.0000      34.433907       936.9942 
 368   0.0000      47.785208      1300.3016 
 369   0.0000      47.839127      1301.7688 
 370   0.0000      48.024944      1306.8252 
 371   0.0000      48.073364      1308.1427 
 372   0.0000      48.966156      1332.4368 
 373   0.0000      74.225492      2019.7783 
 374   0.0000     104.150546      2834.0804 

                 SPIN DOWN ORBITALS
  NO   OCC          E(Eh)            E(eV) 
   0   1.0000     -37.942790     -1032.4758 
   1   1.0000     -13.918778      -378.7492 
   2   1.0000      -9.838032      -267.7065 
   3   1.0000      -2.110476       -57.4290 
   4   1.0000      -1.086839       -29.5744 
   5   1.0000      -1.086354       -29.5612 
   6   1.0000      -1.084881       -29.5211 
   7   1.0000      -0.751044       -20.4370 
   8   1.0000      -0.317363        -8.6359 
   9   1.0000      -0.259359        -7.0575 
  10   1.0000      -0.244590        -6.6556 
  11   1.0000      -0.197336        -5.3698 
  12   0.0000      -0.083669        -2.2767 
  13   0.0000      -0.016888        -0.4595 
  14   0.0000      -0.013390        -0.3644 
  15   0.0000      -0.007637        -0.2078 
  16   0.0000       0.005310         0.1445 
  17   0.0000       0.013430         0.3654 
  18   0.0000       0.014420         0.3924 
  19   0.0000       0.020823         0.5666 
  20   0.0000       0.024621         0.6700 
  21   0.0000       0.027517         0.7488 
  22   0.0000       0.032922         0.8959 
  23   0.0000       0.036336         0.9888 
  24   0.0000       0.036411         0.9908 
  25   0.0000       0.036877         1.0035 
  26   0.0000       0.040604         1.1049 
  27   0.0000       0.050801         1.3824 
  28   0.0000       0.059449         1.6177 
  29   0.0000       0.060556         1.6478 
  30   0.0000       0.062794         1.7087 
  31   0.0000       0.066001         1.7960 
  32   0.0000       0.066113         1.7990 
  33   0.0000       0.075023         2.0415 
  34   0.0000       0.075747         2.0612 
  35   0.0000       0.078970         2.1489 
  36   0.0000       0.080982         2.2036 
  37   0.0000       0.081023         2.2048 
  38   0.0000       0.084856         2.3091 
  39   0.0000       0.094308         2.5662 
  40   0.0000       0.099095         2.6965 
  41   0.0000       0.099268         2.7012 
  42   0.0000       0.104254         2.8369 
  43   0.0000       0.108840         2.9617 
  44   0.0000       0.110411         3.0044 
  45   0.0000       0.115527         3.1437 
  46   0.0000       0.121612         3.3092 
  47   0.0000       0.124896         3.3986 
  48   0.0000       0.130564         3.5528 
  49   0.0000       0.131179         3.5696 
  50   0.0000       0.133564         3.6345 
  51   0.0000       0.133747         3.6394 
  52   0.0000       0.136646         3.7183 
  53   0.0000       0.137591         3.7440 
  54   0.0000       0.144295         3.9265 
  55   0.0000       0.147938         4.0256 
  56   0.0000       0.152639         4.1535 
  57   0.0000       0.163546         4.4503 
  58   0.0000       0.172219         4.6863 
  59   0.0000       0.174777         4.7559 
  60   0.0000       0.180975         4.9246 
  61   0.0000       0.184712         5.0263 
  62   0.0000       0.195931         5.3316 
  63   0.0000       0.202126         5.5001 
  64   0.0000       0.205869         5.6020 
  65   0.0000       0.211699         5.7606 
  66   0.0000       0.215941         5.8760 
  67   0.0000       0.231704         6.3050 
  68   0.0000       0.238305         6.4846 
  69   0.0000       0.249172         6.7803 
  70   0.0000       0.250477         6.8158 
  71   0.0000       0.262554         7.1444 
  72   0.0000       0.264732         7.2037 
  73   0.0000       0.265982         7.2377 
  74   0.0000       0.277400         7.5484 
  75   0.0000       0.277806         7.5595 
  76   0.0000       0.287324         7.8185 
  77   0.0000       0.292732         7.9656 
  78   0.0000       0.293407         7.9840 
  79   0.0000       0.300461         8.1760 
  80   0.0000       0.309982         8.4350 
  81   0.0000       0.327659         8.9161 
  82   0.0000       0.334757         9.1092 
  83   0.0000       0.348591         9.4857 
  84   0.0000       0.368860        10.0372 
  85   0.0000       0.373159        10.1542 
  86   0.0000       0.380932        10.3657 
  87   0.0000       0.392615        10.6836 
  88   0.0000       0.396237        10.7821 
  89   0.0000       0.402412        10.9502 
  90   0.0000       0.407702        11.0941 
  91   0.0000       0.414116        11.2687 
  92   0.0000       0.425991        11.5918 
  93   0.0000       0.427771        11.6402 
  94   0.0000       0.428458        11.6589 
  95   0.0000       0.444510        12.0957 
  96   0.0000       0.454215        12.3598 
  97   0.0000       0.464574        12.6417 
  98   0.0000       0.465678        12.6717 
  99   0.0000       0.473130        12.8745 
 100   0.0000       0.484776        13.1914 
 101   0.0000       0.504067        13.7163 
 102   0.0000       0.519164        14.1272 
 103   0.0000       0.520077        14.1520 
 104   0.0000       0.533174        14.5084 
 105   0.0000       0.543061        14.7774 
 106   0.0000       0.554709        15.0944 
 107   0.0000       0.560235        15.2448 
 108   0.0000       0.567325        15.4377 
 109   0.0000       0.573053        15.5936 
 110   0.0000       0.575118        15.6498 
 111   0.0000       0.578336        15.7373 
 112   0.0000       0.590657        16.0726 
 113   0.0000       0.594016        16.1640 
 114   0.0000       0.611769        16.6471 
 115   0.0000       0.616143        16.7661 
 116   0.0000       0.621162        16.9027 
 117   0.0000       0.631313        17.1789 
 118   0.0000       0.639374        17.3983 
 119   0.0000       0.642937        17.4952 
 120   0.0000       0.647656        17.6236 
 121   0.0000       0.659334        17.9414 
 122   0.0000       0.661449        17.9989 
 123   0.0000       0.668503        18.1909 
 124   0.0000       0.678850        18.4724 
 125   0.0000       0.682197        18.5635 
 126   0.0000       0.687607        18.7107 
 127   0.0000       0.693191        18.8627 
 128   0.0000       0.702582        19.1182 
 129   0.0000       0.704316        19.1654 
 130   0.0000       0.711179        19.3522 
 131   0.0000       0.755348        20.5541 
 132   0.0000       0.767255        20.8781 
 133   0.0000       0.783628        21.3236 
 134   0.0000       0.792679        21.5699 
 135   0.0000       0.805627        21.9222 
 136   0.0000       0.832142        22.6437 
 137   0.0000       0.838286        22.8109 
 138   0.0000       0.849831        23.1251 
 139   0.0000       0.852030        23.1849 
 140   0.0000       0.882871        24.0241 
 141   0.0000       0.888514        24.1777 
 142   0.0000       0.893565        24.3152 
 143   0.0000       0.903019        24.5724 
 144   0.0000       0.911744        24.8098 
 145   0.0000       0.920080        25.0367 
 146   0.0000       0.931968        25.3601 
 147   0.0000       0.946955        25.7680 
 148   0.0000       0.969648        26.3855 
 149   0.0000       0.971299        26.4304 
 150   0.0000       0.979821        26.6623 
 151   0.0000       0.993849        27.0440 
 152   0.0000       1.013796        27.5868 
 153   0.0000       1.016433        27.6586 
 154   0.0000       1.022409        27.8212 
 155   0.0000       1.032931        28.1075 
 156   0.0000       1.042775        28.3754 
 157   0.0000       1.054219        28.6868 
 158   0.0000       1.078216        29.3397 
 159   0.0000       1.101069        29.9616 
 160   0.0000       1.111558        30.2470 
 161   0.0000       1.118474        30.4352 
 162   0.0000       1.125593        30.6289 
 163   0.0000       1.133798        30.8522 
 164   0.0000       1.161187        31.5975 
 165   0.0000       1.195490        32.5309 
 166   0.0000       1.234560        33.5941 
 167   0.0000       1.265701        34.4415 
 168   0.0000       1.266529        34.4640 
 169   0.0000       1.281612        34.8744 
 170   0.0000       1.304781        35.5049 
 171   0.0000       1.377374        37.4802 
 172   0.0000       1.385755        37.7083 
 173   0.0000       1.407468        38.2992 
 174   0.0000       1.451289        39.4916 
 175   0.0000       1.452195        39.5162 
 176   0.0000       1.484077        40.3838 
 177   0.0000       1.486542        40.4509 
 178   0.0000       1.502582        40.8873 
 179   0.0000       1.521258        41.3955 
 180   0.0000       1.522672        41.4340 
 181   0.0000       1.523653        41.4607 
 182   0.0000       1.560826        42.4722 
 183   0.0000       1.583929        43.1009 
 184   0.0000       1.591566        43.3087 
 185   0.0000       1.614438        43.9311 
 186   0.0000       1.628691        44.3189 
 187   0.0000       1.638283        44.5799 
 188   0.0000       1.650212        44.9046 
 189   0.0000       1.699098        46.2348 
 190   0.0000       1.704467        46.3809 
 191   0.0000       1.740042        47.3489 
 192   0.0000       1.759850        47.8880 
 193   0.0000       1.795327        48.8533 
 194   0.0000       1.834376        49.9159 
 195   0.0000       1.933145        52.6035 
 196   0.0000       1.975159        53.7468 
 197   0.0000       2.044184        55.6251 
 198   0.0000       2.052034        55.8387 
 199   0.0000       2.137013        58.1511 
 200   0.0000       2.160061        58.7782 
 201   0.0000       2.162093        58.8335 
 202   0.0000       2.198538        59.8253 
 203   0.0000       2.221556        60.4516 
 204   0.0000       2.228008        60.6272 
 205   0.0000       2.245137        61.0933 
 206   0.0000       2.290455        62.3265 
 207   0.0000       2.318957        63.1020 
 208   0.0000       2.366982        64.4089 
 209   0.0000       2.379948        64.7617 
 210   0.0000       2.453192        66.7547 
 211   0.0000       2.473321        67.3025 
 212   0.0000       2.623079        71.3776 
 213   0.0000       2.679226        72.9054 
 214   0.0000       2.767225        75.3000 
 215   0.0000       2.774664        75.5024 
 216   0.0000       3.061587        83.3100 
 217   0.0000       3.066373        83.4403 
 218   0.0000       3.105705        84.5105 
 219   0.0000       3.179015        86.5054 
 220   0.0000       3.181130        86.5629 
 221   0.0000       3.227150        87.8152 
 222   0.0000       3.286922        89.4417 
 223   0.0000       3.405685        92.6734 
 224   0.0000       3.781416       102.8975 
 225   0.0000       3.865574       105.1876 
 226   0.0000       3.874358       105.4267 
 227   0.0000       3.979139       108.2779 
 228   0.0000       3.979684       108.2927 
 229   0.0000       4.012851       109.1952 
 230   0.0000       4.014339       109.2357 
 231   0.0000       4.050094       110.2087 
 232   0.0000       4.072606       110.8212 
 233   0.0000       4.085005       111.1586 
 234   0.0000       4.094847       111.4265 
 235   0.0000       4.158269       113.1523 
 236   0.0000       4.165327       113.3443 
 237   0.0000       4.213939       114.6671 
 238   0.0000       4.228605       115.0662 
 239   0.0000       4.254674       115.7756 
 240   0.0000       4.276119       116.3591 
 241   0.0000       4.460254       121.3697 
 242   0.0000       4.483897       122.0130 
 243   0.0000       4.531854       123.3180 
 244   0.0000       4.588705       124.8650 
 245   0.0000       4.596883       125.0875 
 246   0.0000       4.725158       128.5781 
 247   0.0000       4.755307       129.3985 
 248   0.0000       4.784436       130.1911 
 249   0.0000       4.785108       130.2094 
 250   0.0000       4.797036       130.5340 
 251   0.0000       4.867876       132.4617 
 252   0.0000       4.909251       133.5875 
 253   0.0000       4.917285       133.8061 
 254   0.0000       5.025593       136.7533 
 255   0.0000       5.060420       137.7010 
 256   0.0000       5.142836       139.9437 
 257   0.0000       5.233551       142.4122 
 258   0.0000       5.269483       143.3899 
 259   0.0000       5.303565       144.3173 
 260   0.0000       5.344359       145.4274 
 261   0.0000       5.386955       146.5865 
 262   0.0000       5.590940       152.1372 
 263   0.0000       5.621781       152.9764 
 264   0.0000       5.634702       153.3280 
 265   0.0000       5.659310       153.9977 
 266   0.0000       5.700966       155.1312 
 267   0.0000       5.710677       155.3954 
 268   0.0000       5.972750       162.5268 
 269   0.0000       6.012434       163.6066 
 270   0.0000       6.089169       165.6947 
 271   0.0000       6.284992       171.0233 
 272   0.0000       6.334334       172.3660 
 273   0.0000       6.347739       172.7308 
 274   0.0000       6.378539       173.5689 
 275   0.0000       6.515820       177.3045 
 276   0.0000       6.664267       181.3439 
 277   0.0000       6.760831       183.9716 
 278   0.0000       6.840975       186.1524 
 279   0.0000       6.907703       187.9682 
 280   0.0000       6.981913       189.9875 
 281   0.0000       7.129962       194.0161 
 282   0.0000       7.234065       196.8489 
 283   0.0000       7.827638       213.0009 
 284   0.0000       8.130601       221.2449 
 285   0.0000       8.281109       225.3404 
 286   0.0000       8.323645       226.4979 
 287   0.0000       9.195038       250.2097 
 288   0.0000       9.337945       254.0984 
 289   0.0000       9.774926       265.9893 
 290   0.0000      10.181427       277.0507 
 291   0.0000      10.210959       277.8543 
 292   0.0000      10.237726       278.5827 
 293   0.0000      10.244515       278.7674 
 294   0.0000      10.358697       281.8745 
 295   0.0000      10.458105       284.5795 
 296   0.0000      10.463004       284.7128 
 297   0.0000      10.470544       284.9180 
 298   0.0000      10.535051       286.6733 
 299   0.0000      10.627748       289.1957 
 300   0.0000      10.628381       289.2130 
 301   0.0000      10.847757       295.1825 
 302   0.0000      10.848964       295.2153 
 303   0.0000      10.891814       296.3813 
 304   0.0000      11.068483       301.1887 
 305   0.0000      11.084427       301.6226 
 306   0.0000      11.366386       309.2951 
 307   0.0000      11.410315       310.4905 
 308   0.0000      11.469848       312.1104 
 309   0.0000      11.470290       312.1225 
 310   0.0000      11.502359       312.9951 
 311   0.0000      11.555717       314.4470 
 312   0.0000      11.582270       315.1696 
 313   0.0000      11.588598       315.3418 
 314   0.0000      11.627544       316.4016 
 315   0.0000      11.659094       317.2601 
 316   0.0000      11.723693       319.0179 
 317   0.0000      11.737764       319.4008 
 318   0.0000      11.748234       319.6857 
 319   0.0000      11.929916       324.6295 
 320   0.0000      11.933461       324.7260 
 321   0.0000      12.023160       327.1668 
 322   0.0000      12.025005       327.2170 
 323   0.0000      12.119891       329.7990 
 324   0.0000      12.134964       330.2092 
 325   0.0000      12.479961       339.5970 
 326   0.0000      12.509543       340.4020 
 327   0.0000      12.656370       344.3973 
 328   0.0000      12.685216       345.1823 
 329   0.0000      12.860192       349.9436 
 330   0.0000      12.986017       353.3675 
 331   0.0000      12.987657       353.4121 
 332   0.0000      13.542554       368.5116 
 333   0.0000      13.720458       373.3526 
 334   0.0000      13.743931       373.9914 
 335   0.0000      14.389178       391.5494 
 336   0.0000      14.411175       392.1480 
 337   0.0000      14.601279       397.3210 
 338   0.0000      14.617262       397.7559 
 339   0.0000      14.671630       399.2354 
 340   0.0000      15.020308       408.7234 
 341   0.0000      15.032896       409.0659 
 342   0.0000      15.387658       418.7195 
 343   0.0000      15.405064       419.1931 
 344   0.0000      15.577494       423.8852 
 345   0.0000      15.827131       430.6781 
 346   0.0000      15.882822       432.1936 
 347   0.0000      16.009133       435.6307 
 348   0.0000      16.744535       455.6420 
 349   0.0000      16.792189       456.9387 
 350   0.0000      16.997834       462.5346 
 351   0.0000      17.074697       464.6261 
 352   0.0000      17.699284       481.6220 
 353   0.0000      17.724644       482.3121 
 354   0.0000      17.739897       482.7271 
 355   0.0000      18.673178       508.1230 
 356   0.0000      19.088184       519.4159 
 357   0.0000      19.127085       520.4744 
 358   0.0000      21.476231       584.3980 
 359   0.0000      24.031778       653.9379 
 360   0.0000      26.152411       711.6433 
 361   0.0000      26.318348       716.1587 
 362   0.0000      27.940564       760.3014 
 363   0.0000      31.967331       869.8753 
 364   0.0000      32.034482       871.7026 
 365   0.0000      32.917047       895.7184 
 366   0.0000      32.926370       895.9721 
 367   0.0000      34.433907       936.9942 
 368   0.0000      47.785208      1300.3016 
 369   0.0000      47.839127      1301.7688 
 370   0.0000      48.024944      1306.8252 
 371   0.0000      48.073364      1308.1427 
 372   0.0000      48.966156      1332.4368 
 373   0.0000      74.225492      2019.7783 
 374   0.0000     104.150546      2834.0804 

                    ********************************
                    * MULLIKEN POPULATION ANALYSIS *
                    ********************************

--------------------------------------------
MULLIKEN ATOMIC CHARGES AND SPIN POPULATIONS
--------------------------------------------
   0 C :   -0.255027   -0.000000
   1 N :   -0.433928    0.000000
   2 Na:    0.688955    0.000000
Sum of atomic charges         :    0.0000000
Sum of atomic spin populations:   -0.0000000

-----------------------------------------------------
MULLIKEN REDUCED ORBITAL CHARGES AND SPIN POPULATIONS
-----------------------------------------------------
CHARGE
  0 C s       :     3.687459  s :     3.687459
      pz      :     0.734655  p :     2.510889
      px      :     1.013623
      py      :     0.762612
      dz2     :     0.003501  d :     0.055022
      dxz     :     0.022787
      dyz     :     0.002513
      dx2y2   :     0.013181
      dxy     :     0.013041
      f0      :     0.000957  f :     0.003014
      f+1     :     0.000289
      f-1     :     0.000026
      f+2     :     0.000816
      f-2     :     0.001043
      f+3     :    -0.000096
      f-3     :    -0.000022
      g0      :    -0.000013  g :    -0.000801
      g+1     :     0.000095
      g-1     :     0.000035
      g+2     :    -0.000101
      g-2     :    -0.000128
      g+3     :    -0.000068
      g-3     :     0.000235
      g+4     :    -0.000198
      g-4     :    -0.000658
      h0      :    -0.000057  h :    -0.000557
      h+1     :    -0.000011
      h-1     :    -0.000022
      h+2     :     0.000004
      h-2     :    -0.000062
      h+3     :    -0.000077
      h-3     :    -0.000054
      h+4     :    -0.000075
      h-4     :     0.000000
      h+5     :    -0.000030
      h-5     :    -0.000171
  1 N s       :     3.937876  s :     3.937876
      pz      :     1.182533  p :     3.453410
      px      :     1.169868
      py      :     1.101009
      dz2     :     0.003520  d :     0.050852
      dxz     :     0.009990
      dyz     :     0.004714
      dx2y2   :     0.019676
      dxy     :     0.012951
      f0      :    -0.000088  f :    -0.002762
      f+1     :    -0.000326
      f-1     :     0.000265
      f+2     :    -0.000366
      f-2     :     0.000028
      f+3     :     0.000085
      f-3     :    -0.002359
      g0      :    -0.000109  g :    -0.004053
      g+1     :     0.000138
      g-1     :    -0.000545
      g+2     :    -0.000343
      g-2     :    -0.000247
      g+3     :    -0.000417
      g-3     :    -0.000264
      g+4     :    -0.002029
      g-4     :    -0.000238
      h0      :    -0.000097  h :    -0.001394
      h+1     :    -0.000022
      h-1     :    -0.000041
      h+2     :    -0.000138
      h-2     :    -0.000033
      h+3     :    -0.000112
      h-3     :    -0.000162
      h+4     :    -0.000091
      h-4     :    -0.000121
      h+5     :     0.000029
      h-5     :    -0.000605
  2 Nas       :     4.110579  s :     4.110579
      pz      :     2.027078  p :     6.137863
      px      :     2.039362
      py      :     2.071423
      dz2     :     0.009661  d :     0.054014
      dxz     :     0.002696
      dyz     :     0.010257
      dx2y2   :     0.015490
      dxy     :     0.015910
      f0      :     0.000640  f :     0.007447
      f+1     :     0.000548
      f-1     :     0.001930
      f+2     :     0.000450
      f-2     :     0.000451
      f+3     :     0.002407
      f-3     :     0.001021
      g0      :     0.000168  g :     0.001141
      g+1     :     0.000024
      g-1     :     0.000153
      g+2     :     0.000114
      g-2     :     0.000205
      g+3     :     0.000124
      g-3     :     0.000008
      g+4     :     0.000157
      g-4     :     0.000189

SPIN
  0 C s       :    -0.000000  s :    -0.000000
      pz      :    -0.000000  p :    -0.000000
      px      :    -0.000000
      py      :    -0.000000
      dz2     :    -0.000000  d :    -0.000000
      dxz     :    -0.000000
      dyz     :     0.000000
      dx2y2   :    -0.000000
      dxy     :    -0.000000
      f0      :    -0.000000  f :    -0.000000
      f+1     :    -0.000000
      f-1     :    -0.000000
      f+2     :    -0.000000
      f-2     :     0.000000
      f+3     :     0.000000
      f-3     :    -0.000000
      g0      :    -0.000000  g :    -0.000000
      g+1     :     0.000000
      g-1     :     0.000000
      g+2     :    -0.000000
      g-2     :    -0.000000
      g+3     :     0.000000
      g-3     :    -0.000000
      g+4     :     0.000000
      g-4     :    -0.000000
      h0      :     0.000000  h :    -0.000000
      h+1     :    -0.000000
      h-1     :    -0.000000
      h+2     :    -0.000000
      h-2     :     0.000000
      h+3     :     0.000000
      h-3     :    -0.000000
      h+4     :     0.000000
      h-4     :    -0.000000
      h+5     :    -0.000000
      h-5     :    -0.000000
  1 N s       :     0.000000  s :     0.000000
      pz      :     0.000000  p :     0.000000
      px      :    -0.000000
      py      :    -0.000000
      dz2     :     0.000000  d :     0.000000
      dxz     :     0.000000
      dyz     :    -0.000000
      dx2y2   :    -0.000000
      dxy     :     0.000000
      f0      :     0.000000  f :     0.000000
      f+1     :     0.000000
      f-1     :     0.000000
      f+2     :    -0.000000
      f-2     :     0.000000
      f+3     :    -0.000000
      f-3     :     0.000000
      g0      :    -0.000000  g :     0.000000
      g+1     :     0.000000
      g-1     :    -0.000000
      g+2     :     0.000000
      g-2     :     0.000000
      g+3     :     0.000000
      g-3     :     0.000000
      g+4     :    -0.000000
      g-4     :     0.000000
      h0      :     0.000000  h :     0.000000
      h+1     :    -0.000000
      h-1     :    -0.000000
      h+2     :    -0.000000
      h-2     :     0.000000
      h+3     :    -0.000000
      h-3     :     0.000000
      h+4     :     0.000000
      h-4     :    -0.000000
      h+5     :     0.000000
      h-5     :     0.000000
  2 Nas       :     0.000000  s :     0.000000
      pz      :    -0.000000  p :     0.000000
      px      :     0.000000
      py      :     0.000000
      dz2     :    -0.000000  d :    -0.000000
      dxz     :     0.000000
      dyz     :     0.000000
      dx2y2   :     0.000000
      dxy     :    -0.000000
      f0      :     0.000000  f :    -0.000000
      f+1     :    -0.000000
      f-1     :    -0.000000
      f+2     :    -0.000000
      f-2     :     0.000000
      f+3     :     0.000000
      f-3     :    -0.000000
      g0      :    -0.000000  g :    -0.000000
      g+1     :     0.000000
      g-1     :    -0.000000
      g+2     :     0.000000
      g-2     :    -0.000000
      g+3     :     0.000000
      g-3     :    -0.000000
      g+4     :    -0.000000
      g-4     :     0.000000


                     *******************************
                     * LOEWDIN POPULATION ANALYSIS *
                     *******************************

-------------------------------------------
LOEWDIN ATOMIC CHARGES AND SPIN POPULATIONS
-------------------------------------------
   0 C :   -0.505418   -0.000000
   1 N :   -0.536010   -0.000000
   2 Na:    1.041428    0.000000

----------------------------------------------------
LOEWDIN REDUCED ORBITAL CHARGES AND SPIN POPULATIONS
----------------------------------------------------
CHARGE
  0 C s       :     3.068097  s :     3.068097
      pz      :     0.678718  p :     2.644685
      px      :     1.174994
      py      :     0.790973
      dz2     :     0.066368  d :     0.469544
      dxz     :     0.086733
      dyz     :     0.014438
      dx2y2   :     0.119172
      dxy     :     0.182833
      f0      :     0.015791  f :     0.167199
      f+1     :     0.021853
      f-1     :     0.011494
      f+2     :     0.010895
      f-2     :     0.015518
      f+3     :     0.045830
      f-3     :     0.045818
      g0      :     0.005644  g :     0.088014
      g+1     :     0.006864
      g-1     :     0.002649
      g+2     :     0.003026
      g-2     :     0.013369
      g+3     :     0.001920
      g-3     :     0.006054
      g+4     :     0.035133
      g-4     :     0.013355
      h0      :     0.002628  h :     0.067880
      h+1     :     0.004366
      h-1     :     0.003553
      h+2     :     0.000290
      h-2     :     0.005178
      h+3     :     0.006089
      h-3     :     0.007489
      h+4     :     0.004225
      h-4     :     0.000434
      h+5     :     0.017843
      h-5     :     0.015784
  1 N s       :     3.193266  s :     3.193266
      pz      :     1.018832  p :     3.577024
      px      :     1.435590
      py      :     1.122602
      dz2     :     0.058324  d :     0.341987
      dxz     :     0.037937
      dyz     :     0.014917
      dx2y2   :     0.125467
      dxy     :     0.105342
      f0      :     0.010710  f :     0.164324
      f+1     :     0.016583
      f-1     :     0.026123
      f+2     :     0.008916
      f-2     :     0.008753
      f+3     :     0.043196
      f-3     :     0.050044
      g0      :     0.009787  g :     0.136138
      g+1     :     0.003119
      g-1     :     0.008402
      g+2     :     0.020734
      g-2     :     0.007881
      g+3     :     0.003501
      g-3     :     0.006255
      g+4     :     0.031286
      g-4     :     0.045174
      h0      :     0.005939  h :     0.123270
      h+1     :     0.001830
      h-1     :     0.014146
      h+2     :     0.008600
      h-2     :     0.002827
      h+3     :     0.011361
      h-3     :     0.012775
      h+4     :     0.002310
      h-4     :     0.006443
      h+5     :     0.032803
      h-5     :     0.024237
  2 Nas       :     3.669786  s :     3.669786
      pz      :     1.945056  p :     6.015544
      px      :     1.995927
      py      :     2.074561
      dz2     :     0.026198  d :     0.148617
      dxz     :     0.006109
      dyz     :     0.022317
      dx2y2   :     0.044164
      dxy     :     0.049829
      f0      :     0.007242  f :     0.078781
      f+1     :     0.005258
      f-1     :     0.014087
      f+2     :     0.003179
      f-2     :     0.005989
      f+3     :     0.019460
      f-3     :     0.023565
      g0      :     0.003341  g :     0.045844
      g+1     :     0.001496
      g-1     :     0.005820
      g+2     :     0.004213
      g-2     :     0.004707
      g+3     :     0.002850
      g-3     :     0.000146
      g+4     :     0.012038
      g-4     :     0.011234

SPIN
  0 C s       :     0.000000  s :     0.000000
      pz      :    -0.000000  p :    -0.000000
      px      :    -0.000000
      py      :    -0.000000
      dz2     :    -0.000000  d :    -0.000000
      dxz     :    -0.000000
      dyz     :     0.000000
      dx2y2   :     0.000000
      dxy     :    -0.000000
      f0      :     0.000000  f :     0.000000
      f+1     :    -0.000000
      f-1     :    -0.000000
      f+2     :     0.000000
      f-2     :    -0.000000
      f+3     :     0.000000
      f-3     :     0.000000
      g0      :    -0.000000  g :    -0.000000
      g+1     :     0.000000
      g-1     :    -0.000000
      g+2     :    -0.000000
      g-2     :     0.000000
      g+3     :     0.000000
      g-3     :     0.000000
      g+4     :    -0.000000
      g-4     :     0.000000
      h0      :     0.000000  h :    -0.000000
      h+1     :     0.000000
      h-1     :    -0.000000
      h+2     :    -0.000000
      h-2     :     0.000000
      h+3     :     0.000000
      h-3     :    -0.000000
      h+4     :    -0.000000
      h-4     :     0.000000
      h+5     :     0.000000
      h-5     :    -0.000000
  1 N s       :    -0.000000  s :    -0.000000
      pz      :     0.000000  p :     0.000000
      px      :     0.000000
      py      :     0.000000
      dz2     :    -0.000000  d :    -0.000000
      dxz     :    -0.000000
      dyz     :    -0.000000
      dx2y2   :     0.000000
      dxy     :    -0.000000
      f0      :    -0.000000  f :    -0.000000
      f+1     :     0.000000
      f-1     :    -0.000000
      f+2     :     0.000000
      f-2     :     0.000000
      f+3     :    -0.000000
      f-3     :    -0.000000
      g0      :    -0.000000  g :    -0.000000
      g+1     :     0.000000
      g-1     :    -0.000000
      g+2     :     0.000000
      g-2     :     0.000000
      g+3     :     0.000000
      g-3     :     0.000000
      g+4     :     0.000000
      g-4     :    -0.000000
      h0      :     0.000000  h :     0.000000
      h+1     :     0.000000
      h-1     :     0.000000
      h+2     :     0.000000
      h-2     :     0.000000
      h+3     :    -0.000000
      h-3     :     0.000000
      h+4     :     0.000000
      h-4     :     0.000000
      h+5     :     0.000000
      h-5     :     0.000000
  2 Nas       :     0.000000  s :     0.000000
      pz      :     0.000000  p :     0.000000
      px      :     0.000000
      py      :    -0.000000
      dz2     :    -0.000000  d :    -0.000000
      dxz     :    -0.000000
      dyz     :     0.000000
      dx2y2   :     0.000000
      dxy     :    -0.000000
      f0      :     0.000000  f :     0.000000
      f+1     :     0.000000
      f-1     :     0.000000
      f+2     :     0.000000
      f-2     :     0.000000
      f+3     :     0.000000
      f-3     :     0.000000
      g0      :    -0.000000  g :    -0.000000
      g+1     :     0.000000
      g-1     :     0.000000
      g+2     :     0.000000
      g-2     :    -0.000000
      g+3     :    -0.000000
      g-3     :     0.000000
      g+4     :    -0.000000
      g-4     :     0.000000


                      *****************************
                      * MAYER POPULATION ANALYSIS *
                      *****************************

  NA   - Mulliken gross atomic population
  ZA   - Total nuclear charge
  QA   - Mulliken gross atomic charge
  VA   - Mayer's total valence
  BVA  - Mayer's bonded valence
  FA   - Mayer's free valence

  ATOM       NA         ZA         QA         VA         BVA        FA
  0 C      6.2550     6.0000    -0.2550     2.6444     2.6444     0.0000
  1 N      7.4339     7.0000    -0.4339     2.7888     2.7888    -0.0000
  2 Na    10.3110    11.0000     0.6890     0.5053     0.5053    -0.0000

  Mayer bond orders larger than 0.1
B(  0-C ,  1-N ) :   2.4640 B(  0-C ,  2-Na) :   0.1804 B(  1-N ,  2-Na) :   0.3249 


-------
TIMINGS
-------

Total SCF time: 0 days 0 hours 15 min 33 sec 

Total time                  ....     933.161 sec
Sum of individual times     ....     932.170 sec  ( 99.9%)

Fock matrix formation       ....     928.723 sec  ( 99.5%)
  XC integration            ....      15.552 sec  (  1.7% of F)
    Basis function eval.    ....       1.144 sec  (  7.4% of XC)
    Density eval.           ....       3.242 sec  ( 20.8% of XC)
    XC-Functional eval.     ....       0.148 sec  (  1.0% of XC)
    XC-Potential eval.      ....      10.470 sec  ( 67.3% of XC)
Diagonalization             ....       1.412 sec  (  0.2%)
Density matrix formation    ....       0.027 sec  (  0.0%)
Population analysis         ....       0.092 sec  (  0.0%)
Initial guess               ....       0.684 sec  (  0.1%)
Orbital Transformation      ....       0.000 sec  (  0.0%)
Orbital Orthonormalization  ....       0.000 sec  (  0.0%)
DIIS solution               ....       0.837 sec  (  0.1%)
Grid generation             ....       0.394 sec  (  0.0%)

-------------------------   --------------------
FINAL SINGLE POINT ENERGY      -254.970457547168
-------------------------   --------------------


                            ***************************************
                            *     ORCA property calculations      *
                            ***************************************

                                    ---------------------
                                    Active property flags
                                    ---------------------
   (+) Dipole Moment


------------------------------------------------------------------------------
                       ORCA ELECTRIC PROPERTIES CALCULATION
------------------------------------------------------------------------------

Dipole Moment Calculation                       ... on
Quadrupole Moment Calculation                   ... off
Polarizability Calculation                      ... off
GBWName                                         ... nacn_pbe_+0001_x.gbw
Electron density file                           ... nacn_pbe_+0001_x.scfp.tmp
The origin for moment calculation is the CENTER OF MASS  = (-0.022120, -0.040278  0.000000)

-------------
DIPOLE MOMENT
-------------
                                X             Y             Z
Electronic contribution:     -2.27043      -3.83124      -0.00000
Nuclear contribution   :      0.53106       0.96800       0.00000
                        -----------------------------------------
Total Dipole Moment    :     -1.73937      -2.86324      -0.00000
                        -----------------------------------------
Magnitude (a.u.)       :      3.35016
Magnitude (Debye)      :      8.51542



--------------------
Rotational spectrum 
--------------------
 
Rotational constants in cm-1:     1.854688     0.270089     0.235757 
Rotational constants in MHz : 55602.151725  8097.075355  7067.822217 

 Dipole components along the rotational axes: 
x,y,z [a.u.] :     3.348879     0.092468    -0.000000 
x,y,z [Debye]:     8.512174     0.235036    -0.000000 

 

Timings for individual modules:

Sum of individual times         ...      935.574 sec (=  15.593 min)
GTO integral calculation        ...        1.928 sec (=   0.032 min)   0.2 %
SCF iterations                  ...      933.646 sec (=  15.561 min)  99.8 %
                             ****ORCA TERMINATED NORMALLY****
TOTAL RUN TIME: 0 days 0 hours 15 minutes 36 seconds 448 msec
