
                                 *****************
                                 * O   R   C   A *
                                 *****************

           --- An Ab Initio, DFT and Semiempirical electronic structure package ---

                  #######################################################
                  #                        -***-                        #
                  #          Department of theory and spectroscopy      #
                  #               Directorship: Frank Neese             #
                  #        Max Planck Institute fuer Kohlenforschung    #
                  #                Kaiser Wilhelm Platz 1               #
                  #                 D-45470 Muelheim/Ruhr               #
                  #                      Germany                        #
                  #                                                     #
                  #                  All rights reserved                #
                  #                        -***-                        #
                  #######################################################


                         Program Version 4.1.2  - RELEASE  -


 With contributions from (in alphabetic order):
   Daniel Aravena         : Magnetic Properties
   Michael Atanasov       : Ab Initio Ligand Field Theory
   Alexander A. Auer      : GIAO ZORA
   Ute Becker             : Parallelization
   Giovanni Bistoni       : ED, Open-shell LED
   Martin Brehm           : Molecular dynamics
   Dmytro Bykov           : SCF Hessian
   Vijay G. Chilkuri      : MRCI spin determinant printing
   Dipayan Datta          : RHF DLPNO-CCSD density
   Achintya Kumar Dutta   : EOM-CC, STEOM-CC
   Dmitry Ganyushin       : Spin-Orbit,Spin-Spin,Magnetic field MRCI
   Miquel Garcia          : C-PCM Hessian
   Yang Guo               : DLPNO-NEVPT2, CIM, IAO-localization
   Andreas Hansen         : Spin unrestricted coupled pair/coupled cluster methods
   Benjamin Helmich-Paris : CASSCF linear response (MC-RPA)
   Lee Huntington         : MR-EOM, pCC
   Robert Izsak           : Overlap fitted RIJCOSX, COSX-SCS-MP3, EOM
   Christian Kollmar      : KDIIS, OOCD, Brueckner-CCSD(T), CCSD density
   Simone Kossmann        : Meta GGA functionals, TD-DFT gradient, OOMP2, MP2 Hessian
   Martin Krupicka        : AUTO-CI
   Lucas Lang             : DCDCAS
   Dagmar Lenk            : GEPOL surface, SMD
   Dimitrios Liakos       : Extrapolation schemes; parallel MDCI
   Dimitrios Manganas     : ROCIS; embedding schemes
   Dimitrios Pantazis     : SARC Basis sets
   Taras Petrenko         : DFT Hessian,TD-DFT gradient, ASA, ECA, R-Raman, ABS, FL, XAS/XES, NRVS
   Peter Pinski           : DLPNO-MP2, DLPNO-MP2 Gradient
   Christoph Reimann      : Effective Core Potentials
   Marius Retegan         : Local ZFS, SOC
   Christoph Riplinger    : Optimizer, TS searches, QM/MM, DLPNO-CCSD(T), (RO)-DLPNO pert. Triples
   Tobias Risthaus        : Range-separated hybrids, TD-DFT gradient, RPA, STAB
   Michael Roemelt        : Restricted open shell CIS
   Masaaki Saitow         : Open-shell DLPNO
   Barbara Sandhoefer     : DKH picture change effects
   Avijit Sen             : IP-ROCIS
   Kantharuban Sivalingam : CASSCF convergence, NEVPT2, FIC-MRCI
   Bernardo de Souza      : ESD, SOC TD-DFT
   Georgi Stoychev        : AutoAux, RI-MP2 NMR
   Willem Van den Heuvel  : Paramagnetic NMR
   Boris Wezisla          : Elementary symmetry handling
   Frank Wennmohs         : Technical directorship


 We gratefully acknowledge several colleagues who have allowed us to
 interface, adapt or use parts of their codes:
   Stefan Grimme, W. Hujo, H. Kruse,             : VdW corrections, initial TS optimization,
                  C. Bannwarth                     DFT functionals, gCP, sTDA/sTD-DF
   Ed Valeev                                     : LibInt (2-el integral package), F12 methods
   Garnet Chan, S. Sharma, J. Yang, R. Olivares  : DMRG
   Ulf Ekstrom                                   : XCFun DFT Library
   Mihaly Kallay                                 : mrcc  (arbitrary order and MRCC methods)
   Andreas Klamt, Michael Diedenhofen            : otool_cosmo (COSMO solvation model)
   Jiri Pittner, Ondrej Demel                    : Mk-CCSD
   Frank Weinhold                                : gennbo (NPA and NBO analysis)
   Christopher J. Cramer and Donald G. Truhlar   : smd solvation model
   Lars Goerigk                                  : TD-DFT with DH, B97 family of functionals
   V. Asgeirsson, H. Jonsson                     : NEB implementation
   FAccTs GmbH                                   : IRC, NEB, NEB-TS, Multilevel


 Your calculation uses the libint2 library for the computation of 2-el integrals
 For citations please refer to: http://libint.valeyev.net

 This ORCA versions uses:
   CBLAS   interface :  Fast vector & matrix operations
   LAPACKE interface :  Fast linear algebra routines
   SCALAPACK package :  Parallel linear algebra routines


----- Orbital basis set information -----
Your calculation utilizes the basis: aug-pc-4
   H, C-F              : F. Jensen, J. Chem. Phys. 115, 9113 (2001).
                         F. Jensen, J. Chem. Phys. 116, 7372 (2002).
                         F. Jensen, J. Chem. Phys. 117, 9234 (2002).
   Si-Cl               : F. Jensen, T. Helgaker, J. Chem. Phys. 121, 3463 (2004).
   He-B, Ne-Mg, Al, Ar : F. Jensen, J. Phys. Chem. A 111, 11198 (2007).
   K, Ca, Ga-Kr        : F. Jensen, J. Chem. Phys. 136, 094110 (2012).
   Sc-Zn               : F. Jensen, J. Chem. Phys. 138, 014107 (2013).

================================================================================
                                        WARNINGS
                       Please study these warnings very carefully!
================================================================================


INFO   : the flag for use of LIBINT has been found!

================================================================================
                                       INPUT FILE
================================================================================
NAME = no_pbe_-0001_z.inp
|  1> !uks pbe nori aug-pc-4 grid5 nofinalgrid verytightscf
|  2> 
|  3> %maxcore 6000
|  4> 
|  5> %pal nprocs 4 end
|  6> 
|  7> %scf
|  8> 	efield 0.0, 0.0, -0.001
|  9> 	maxiter 200
| 10> end
| 11> 
| 12> * xyz 0 2
| 13> N 0.0000 0.0000 0.0000
| 14> O 0.0000 0.0000 1.1538
| 15> *
| 16> 
| 17>                          ****END OF INPUT****
================================================================================

                       ****************************
                       * Single Point Calculation *
                       ****************************

---------------------------------
CARTESIAN COORDINATES (ANGSTROEM)
---------------------------------
  N      0.000000    0.000000    0.000000
  O      0.000000    0.000000    1.153800

----------------------------
CARTESIAN COORDINATES (A.U.)
----------------------------
  NO LB      ZA    FRAG     MASS         X           Y           Z
   0 N     7.0000    0    14.007    0.000000    0.000000    0.000000
   1 O     8.0000    0    15.999    0.000000    0.000000    2.180366

--------------------------------
INTERNAL COORDINATES (ANGSTROEM)
--------------------------------
 N      0   0   0     0.000000000000     0.00000000     0.00000000
 O      1   0   0     1.153800000000     0.00000000     0.00000000

---------------------------
INTERNAL COORDINATES (A.U.)
---------------------------
 N      0   0   0     0.000000000000     0.00000000     0.00000000
 O      1   0   0     2.180366013318     0.00000000     0.00000000

---------------------
BASIS SET INFORMATION
---------------------
There are 2 groups of distinct atoms

 Group   1 Type N   : 27s12p7d4f3g2h contracted to 9s8p7d4f3g2h pattern {1191111111/51111111/1111111/1111/111/11}
 Group   2 Type O   : 27s12p7d4f3g2h contracted to 9s8p7d4f3g2h pattern {1191111111/51111111/1111111/1111/111/11}

Atom   0N    basis set group =>   1
Atom   1O    basis set group =>   2


           ************************************************************
           *        Program running with 4 parallel MPI-processes     *
           *              working on a common directory               *
           ************************************************************
------------------------------------------------------------------------------
                           ORCA GTO INTEGRAL CALCULATION
------------------------------------------------------------------------------

                         BASIS SET STATISTICS AND STARTUP INFO

 # of primitive gaussian shells          ...  110
 # of primitive gaussian functions       ...  350
 # of contracted shells                  ...   66
 # of contracted basis functions         ...  290
 Highest angular momentum                ...    5
 Maximum contraction depth               ...   11
 Integral package used                   ... LIBINT
 Integral threshhold            Thresh   ...  1.000e-12
 Primitive cut-off              TCut     ...  1.000e-14


------------------------------ INTEGRAL EVALUATION ----------------------------


 * One electron integrals 
 Pre-screening matrix                    ... done
 Shell pair data                         ... done (   0.001 sec)


An Electric Field will be added: 0.000e+00 0.000e+00 -1.000e-03 au

  ... done adding electric field perturbation



           ************************************************************
           *        Program running with 4 parallel MPI-processes     *
           *              working on a common directory               *
           ************************************************************
-------------------------------------------------------------------------------
                                 ORCA SCF
-------------------------------------------------------------------------------

------------
SCF SETTINGS
------------
Hamiltonian:
 Density Functional     Method          .... DFT(GTOs)
 Exchange Functional    Exchange        .... PBE
   PBE kappa parameter   XKappa         ....  0.804000
   PBE mue parameter    XMuePBE         ....  0.219520
 Correlation Functional Correlation     .... PBE
   PBE beta parameter  CBetaPBE         ....  0.066725
 LDA part of GGA corr.  LDAOpt          .... PW91-LDA
 Gradients option       PostSCFGGA      .... off
   Density functional embedding theory  .... OFF
   NL short-range parameter             ....  6.400000


General Settings:
 Integral files         IntName         .... no_pbe_-0001_z
 Hartree-Fock type      HFTyp           .... UHF
 Total Charge           Charge          ....    0
 Multiplicity           Mult            ....    2
 Number of Electrons    NEL             ....   15
 Basis Dimension        Dim             ....  290
 Nuclear Repulsion      ENuc            ....     25.6837611933 Eh

Convergence Acceleration:
 DIIS                   CNVDIIS         .... on
   Start iteration      DIISMaxIt       ....    12
   Startup error        DIISStart       ....  0.200000
   # of expansion vecs  DIISMaxEq       ....     5
   Bias factor          DIISBfac        ....   1.050
   Max. coefficient     DIISMaxC        ....  10.000
 Newton-Raphson         CNVNR           .... off
 SOSCF                  CNVSOSCF        .... off
 Level Shifting         CNVShift        .... on
   Level shift para.    LevelShift      ....    0.2500
   Turn off err/grad.   ShiftErr        ....    0.0010
 Zerner damping         CNVZerner       .... off
 Static damping         CNVDamp         .... on
   Fraction old density DampFac         ....    0.7000
   Max. Damping (<1)    DampMax         ....    0.9800
   Min. Damping (>=0)   DampMin         ....    0.0000
   Turn off err/grad.   DampErr         ....    0.1000
 Fernandez-Rico         CNVRico         .... off

SCF Procedure:
 Maximum # iterations   MaxIter         ....   200
 SCF integral mode      SCFMode         .... Direct
   Integral package                     .... LIBINT
 Reset frequency        DirectResetFreq ....    20
 Integral Threshold     Thresh          ....  1.000e-12 Eh
 Primitive CutOff       TCut            ....  1.000e-14 Eh

Convergence Tolerance:
 Convergence Check Mode ConvCheckMode   .... Total+1el-Energy
 Convergence forced     ConvForced      .... 0
 Energy Change          TolE            ....  1.000e-09 Eh
 1-El. energy change                    ....  1.000e-06 Eh
 DIIS Error             TolErr          ....  1.000e-08


Diagonalization of the overlap matrix:
Smallest eigenvalue                        ... 2.019e-06
Time for diagonalization                   ...    0.015 sec
Threshold for overlap eigenvalues          ... 1.000e-08
Number of eigenvalues below threshold      ... 0
Time for construction of square roots      ...    0.011 sec
Total time needed                          ...    0.026 sec

-------------------
DFT GRID GENERATION
-------------------

General Integration Accuracy     IntAcc      ...  5.010
Radial Grid Type                 RadialGrid  ... Gauss-Chebyshev
Angular Grid (max. acc.)         AngularGrid ... Lebedev-434
Angular grid pruning method      GridPruning ... 3 (G Style)
Weight generation scheme         WeightScheme... Becke
Basis function cutoff            BFCut       ...    1.0000e-12
Integration weight cutoff        WCut        ...    1.0000e-14
Grids for H and He will be reduced by one unit

# of grid points (after initial pruning)     ...  21432 (   0.0 sec)
# of grid points (after weights+screening)   ...  21342 (   0.0 sec)
nearest neighbour list constructed           ...    0.0 sec
Grid point re-assignment to atoms done       ...    0.0 sec
Grid point division into batches done        ...    0.2 sec
Reduced shell lists constructed in    0.2 sec

Total number of grid points                  ...    21342
Total number of batches                      ...      334
Average number of points per batch           ...       63
Average number of grid points per atom       ...    10671
Average number of shells per batch           ...    40.49 (61.35%)
Average number of basis functions per batch  ...   187.39 (64.62%)
Average number of large shells per batch     ...    34.79 (85.91%)
Average number of large basis fcns per batch ...   162.46 (86.70%)
Maximum spatial batch extension              ...  16.29, 16.29, 13.64 au
Average spatial batch extension              ...   1.36,  1.35,  1.17 au

Time for grid setup =    0.240 sec

------------------------------
INITIAL GUESS: MODEL POTENTIAL
------------------------------
Loading Hartree-Fock densities                     ... done
Calculating cut-offs                               ... done
Setting up the integral package                    ... done
Initializing the effective Hamiltonian             ... done
Starting the Coulomb interaction                   ... done (   0.0 sec)
Reading the grid                                   ... done
Mapping shells                                     ... done
Starting the XC term evaluation                    ... done (   0.2 sec)
  promolecular density results
     # of electrons  =     15.000002805
     EX              =    -14.595347118
     EC              =     -0.490731592
     EX+EC           =    -15.086078709
Transforming the Hamiltonian                       ... done (   0.0 sec)
Diagonalizing the Hamiltonian                      ... done (   0.0 sec)
Back transforming the eigenvectors                 ... done (   0.0 sec)
Now organizing SCF variables                       ... done
                      ------------------
                      INITIAL GUESS DONE (   0.6 sec)
                      ------------------
--------------
SCF ITERATIONS
--------------
ITER       Energy         Delta-E        Max-DP      RMS-DP      [F,P]     Damp
               ***  Starting incremental Fock matrix formation  ***
  0   -129.8167195624   0.000000000000 0.00559193  0.00005903  0.0801884 0.7000
  1   -129.8204938822  -0.003774319738 0.00416177  0.00003978  0.0238685 0.7000
                               ***Turning on DIIS***
  2   -129.8218746043  -0.001380722128 0.00975071  0.00008584  0.0150968 0.0000
  3   -129.8252377060  -0.003363101742 0.00270365  0.00002402  0.0124239 0.0000
  4   -129.8255220961  -0.000284390064 0.00044115  0.00000612  0.0017831 0.0000
  5   -129.8255346672  -0.000012571125 0.00023858  0.00000293  0.0011866 0.0000
  6   -129.8255376414  -0.000002974186 0.00046330  0.00000430  0.0004750 0.0000
  7   -129.8255387882  -0.000001146823 0.00005598  0.00000075  0.0003835 0.0000
  8   -129.8255390502  -0.000000261955 0.00002094  0.00000031  0.0000301 0.0000
  9   -129.8255390837  -0.000000033494 0.00000742  0.00000009  0.0000076 0.0000
 10   -129.8255390882  -0.000000004534 0.00000342  0.00000004  0.0000085 0.0000
 11   -129.8255390891  -0.000000000923 0.00000274  0.00000003  0.0000015 0.0000
 12   -129.8255390895  -0.000000000350 0.00000057  0.00000001  0.0000003 0.0000
 13   -129.8255390895  -0.000000000018 0.00000022  0.00000000  0.0000001 0.0000
                 **** Energy Check signals convergence ****

               *****************************************************
               *                     SUCCESS                       *
               *           SCF CONVERGED AFTER  14 CYCLES          *
               *****************************************************


----------------
TOTAL SCF ENERGY
----------------

Total Energy       :         -129.82553909 Eh           -3532.73252 eV

Components:
Nuclear Repulsion  :           25.68376119 Eh             698.89067 eV
Electronic Energy  :         -155.50930028 Eh           -4231.62319 eV
One Electron Energy:         -227.78614803 Eh           -6198.37621 eV
Two Electron Energy:           72.27684775 Eh            1966.75301 eV

Virial components:
Potential Energy   :         -259.25313502 Eh           -7054.63645 eV
Kinetic Energy     :          129.42759593 Eh            3521.90394 eV
Virial Ratio       :            2.00307464


DFT components:
N(Alpha)           :        8.000000351083 electrons
N(Beta)            :        7.000000370256 electrons
N(Total)           :       15.000000721339 electrons
E(X)               :      -14.729215418216 Eh       
E(C)               :       -0.489585463292 Eh       
E(XC)              :      -15.218800881508 Eh       
DFET-embed. en.    :        0.000000000000 Eh       

---------------
SCF CONVERGENCE
---------------

  Last Energy change         ...   -3.4390e-12  Tolerance :   1.0000e-09
  Last MAX-Density change    ...    6.3076e-07  Tolerance :   1.0000e-08
  Last RMS-Density change    ...    5.7218e-09  Tolerance :   1.0000e-09
  Last DIIS Error            ...    6.8523e-08  Tolerance :   1.0000e-08

             **** THE GBW FILE WAS UPDATED (no_pbe_-0001_z.gbw) ****
             **** DENSITY FILE WAS UPDATED (no_pbe_-0001_z.scfp.tmp) ****
             **** ENERGY FILE WAS UPDATED (no_pbe_-0001_z.en.tmp) ****
----------------------
UHF SPIN CONTAMINATION
----------------------

Warning: in a DFT calculation there is little theoretical justification to 
         calculate <S**2> as in Hartree-Fock theory. We will do it anyways
         but you should keep in mind that the values have only limited relevance

Expectation value of <S**2>     :     0.752020
Ideal value S*(S+1) for S=0.5   :     0.750000
Deviation                       :     0.002020

----------------
ORBITAL ENERGIES
----------------
                 SPIN UP ORBITALS
  NO   OCC          E(Eh)            E(eV) 
   0   1.0000     -18.889567      -514.0113 
   1   1.0000     -14.119031      -384.1984 
   2   1.0000      -1.154444       -31.4140 
   3   1.0000      -0.622322       -16.9342 
   4   1.0000      -0.474409       -12.9093 
   5   1.0000      -0.472621       -12.8607 
   6   1.0000      -0.431688       -11.7468 
   7   1.0000      -0.166910        -4.5419 
   8   0.0000      -0.156424        -4.2565 
   9   0.0000      -0.002385        -0.0649 
  10   0.0000       0.022313         0.6072 
  11   0.0000       0.022890         0.6229 
  12   0.0000       0.025471         0.6931 
  13   0.0000       0.057018         1.5515 
  14   0.0000       0.058633         1.5955 
  15   0.0000       0.061850         1.6830 
  16   0.0000       0.099804         2.7158 
  17   0.0000       0.115323         3.1381 
  18   0.0000       0.117959         3.2098 
  19   0.0000       0.120644         3.2829 
  20   0.0000       0.131293         3.5727 
  21   0.0000       0.132385         3.6024 
  22   0.0000       0.168672         4.5898 
  23   0.0000       0.179852         4.8940 
  24   0.0000       0.183690         4.9985 
  25   0.0000       0.186411         5.0725 
  26   0.0000       0.195347         5.3157 
  27   0.0000       0.195898         5.3307 
  28   0.0000       0.196734         5.3534 
  29   0.0000       0.199523         5.4293 
  30   0.0000       0.265510         7.2249 
  31   0.0000       0.287860         7.8331 
  32   0.0000       0.288179         7.8418 
  33   0.0000       0.309382         8.4187 
  34   0.0000       0.313786         8.5386 
  35   0.0000       0.326740         8.8910 
  36   0.0000       0.352434         9.5902 
  37   0.0000       0.353630         9.6228 
  38   0.0000       0.358128         9.7452 
  39   0.0000       0.364091         9.9074 
  40   0.0000       0.368498        10.0273 
  41   0.0000       0.371418        10.1068 
  42   0.0000       0.380591        10.3564 
  43   0.0000       0.380802        10.3621 
  44   0.0000       0.414221        11.2715 
  45   0.0000       0.415618        11.3095 
  46   0.0000       0.423857        11.5337 
  47   0.0000       0.426737        11.6121 
  48   0.0000       0.467908        12.7324 
  49   0.0000       0.480404        13.0725 
  50   0.0000       0.481075        13.0907 
  51   0.0000       0.491384        13.3712 
  52   0.0000       0.491930        13.3861 
  53   0.0000       0.492043        13.3892 
  54   0.0000       0.561905        15.2902 
  55   0.0000       0.562099        15.2955 
  56   0.0000       0.584535        15.9060 
  57   0.0000       0.588462        16.0129 
  58   0.0000       0.588661        16.0183 
  59   0.0000       0.624013        16.9802 
  60   0.0000       0.631183        17.1754 
  61   0.0000       0.632751        17.2180 
  62   0.0000       0.663484        18.0543 
  63   0.0000       0.663775        18.0622 
  64   0.0000       0.677308        18.4305 
  65   0.0000       0.677345        18.4315 
  66   0.0000       0.698836        19.0163 
  67   0.0000       0.705021        19.1846 
  68   0.0000       0.734900        19.9976 
  69   0.0000       0.743711        20.2374 
  70   0.0000       0.743941        20.2437 
  71   0.0000       0.773924        21.0595 
  72   0.0000       0.774666        21.0797 
  73   0.0000       0.782523        21.2935 
  74   0.0000       0.785598        21.3772 
  75   0.0000       0.805385        21.9157 
  76   0.0000       0.805408        21.9163 
  77   0.0000       0.835225        22.7276 
  78   0.0000       0.836836        22.7715 
  79   0.0000       0.837278        22.7835 
  80   0.0000       0.887303        24.1447 
  81   0.0000       0.896559        24.3966 
  82   0.0000       0.897987        24.4355 
  83   0.0000       0.899158        24.4673 
  84   0.0000       0.902167        24.5492 
  85   0.0000       0.902475        24.5576 
  86   0.0000       0.902850        24.5678 
  87   0.0000       0.914031        24.8721 
  88   0.0000       0.915142        24.9023 
  89   0.0000       0.939384        25.5620 
  90   0.0000       0.939487        25.5647 
  91   0.0000       0.946652        25.7597 
  92   0.0000       0.969182        26.3728 
  93   0.0000       0.969345        26.3772 
  94   0.0000       0.996528        27.1169 
  95   0.0000       0.996547        27.1174 
  96   0.0000       1.028523        27.9875 
  97   0.0000       1.029352        28.0101 
  98   0.0000       1.103257        30.0211 
  99   0.0000       1.103312        30.0226 
 100   0.0000       1.146628        31.2013 
 101   0.0000       1.148298        31.2468 
 102   0.0000       1.152230        31.3538 
 103   0.0000       1.174680        31.9647 
 104   0.0000       1.201779        32.7021 
 105   0.0000       1.202429        32.7198 
 106   0.0000       1.270789        34.5799 
 107   0.0000       1.329917        36.1889 
 108   0.0000       1.331654        36.2362 
 109   0.0000       1.451764        39.5045 
 110   0.0000       1.480570        40.2884 
 111   0.0000       1.483621        40.3714 
 112   0.0000       1.557183        42.3731 
 113   0.0000       1.560401        42.4607 
 114   0.0000       1.623888        44.1882 
 115   0.0000       1.661900        45.2226 
 116   0.0000       1.664964        45.3060 
 117   0.0000       1.808311        49.2066 
 118   0.0000       1.830341        49.8061 
 119   0.0000       1.831846        49.8471 
 120   0.0000       1.873771        50.9879 
 121   0.0000       1.874016        50.9946 
 122   0.0000       1.949832        53.0576 
 123   0.0000       1.951071        53.0913 
 124   0.0000       2.072634        56.3992 
 125   0.0000       2.110178        57.4209 
 126   0.0000       2.110374        57.4262 
 127   0.0000       2.139607        58.2217 
 128   0.0000       2.141474        58.2725 
 129   0.0000       2.307190        62.7818 
 130   0.0000       2.377034        64.6824 
 131   0.0000       2.377882        64.7055 
 132   0.0000       2.421875        65.9026 
 133   0.0000       2.422814        65.9281 
 134   0.0000       2.691685        73.2445 
 135   0.0000       2.886798        78.5538 
 136   0.0000       2.887210        78.5650 
 137   0.0000       2.891117        78.6713 
 138   0.0000       2.894533        78.7643 
 139   0.0000       2.926865        79.6440 
 140   0.0000       3.197629        87.0119 
 141   0.0000       3.200056        87.0779 
 142   0.0000       3.221923        87.6730 
 143   0.0000       3.403782        92.6216 
 144   0.0000       3.739197       101.7487 
 145   0.0000       3.746476       101.9468 
 146   0.0000       3.973336       108.1200 
 147   0.0000       4.031148       109.6931 
 148   0.0000       4.032724       109.7360 
 149   0.0000       4.103787       111.6697 
 150   0.0000       4.106011       111.7302 
 151   0.0000       4.244372       115.4952 
 152   0.0000       4.412961       120.0828 
 153   0.0000       4.413390       120.0944 
 154   0.0000       4.421918       120.3265 
 155   0.0000       4.423799       120.3777 
 156   0.0000       4.564650       124.2104 
 157   0.0000       4.565172       124.2246 
 158   0.0000       4.606379       125.3459 
 159   0.0000       4.884421       132.9118 
 160   0.0000       4.884805       132.9223 
 161   0.0000       4.913430       133.7012 
 162   0.0000       4.913554       133.7046 
 163   0.0000       4.951381       134.7339 
 164   0.0000       4.951488       134.7368 
 165   0.0000       5.199712       141.4914 
 166   0.0000       5.199848       141.4950 
 167   0.0000       5.258761       143.0982 
 168   0.0000       5.327312       144.9635 
 169   0.0000       5.329281       145.0171 
 170   0.0000       5.523254       150.2954 
 171   0.0000       5.867729       159.6690 
 172   0.0000       5.869305       159.7119 
 173   0.0000       5.894742       160.4041 
 174   0.0000       5.894763       160.4047 
 175   0.0000       6.087661       165.6537 
 176   0.0000       6.088097       165.6655 
 177   0.0000       6.467820       175.9983 
 178   0.0000       6.467958       176.0021 
 179   0.0000       6.547024       178.1536 
 180   0.0000       6.551627       178.2788 
 181   0.0000       6.669261       181.4798 
 182   0.0000       6.703435       182.4097 
 183   0.0000       6.710189       182.5935 
 184   0.0000       6.936441       188.7502 
 185   0.0000       7.150323       194.5702 
 186   0.0000       7.441561       202.4952 
 187   0.0000       7.443137       202.5381 
 188   0.0000       7.707357       209.7278 
 189   0.0000       7.708827       209.7679 
 190   0.0000       8.141706       221.5471 
 191   0.0000       8.370231       227.7656 
 192   0.0000       8.372914       227.8386 
 193   0.0000       8.910977       242.4800 
 194   0.0000       8.920651       242.7433 
 195   0.0000       9.027493       245.6506 
 196   0.0000       9.284089       252.6329 
 197   0.0000       9.286491       252.6983 
 198   0.0000       9.918110       269.8855 
 199   0.0000      10.156057       276.3604 
 200   0.0000      10.159110       276.4434 
 201   0.0000      10.504076       285.8304 
 202   0.0000      10.908006       296.8219 
 203   0.0000      10.912506       296.9444 
 204   0.0000      10.941014       297.7201 
 205   0.0000      10.941412       297.7309 
 206   0.0000      10.979011       298.7541 
 207   0.0000      10.981826       298.8307 
 208   0.0000      11.047032       300.6050 
 209   0.0000      11.047117       300.6073 
 210   0.0000      11.107889       302.2610 
 211   0.0000      11.109205       302.2968 
 212   0.0000      11.189297       304.4763 
 213   0.0000      11.190791       304.5169 
 214   0.0000      11.276264       306.8427 
 215   0.0000      11.276334       306.8447 
 216   0.0000      11.585750       315.2643 
 217   0.0000      11.657147       317.2071 
 218   0.0000      11.885007       323.4075 
 219   0.0000      11.888318       323.4976 
 220   0.0000      11.942334       324.9674 
 221   0.0000      11.942338       324.9675 
 222   0.0000      12.268075       333.8313 
 223   0.0000      12.268112       333.8323 
 224   0.0000      12.576446       342.2225 
 225   0.0000      12.576701       342.2294 
 226   0.0000      12.758480       347.1759 
 227   0.0000      12.760107       347.2202 
 228   0.0000      12.860879       349.9623 
 229   0.0000      13.122625       357.0848 
 230   0.0000      13.125491       357.1628 
 231   0.0000      13.158187       358.0525 
 232   0.0000      13.568752       369.2245 
 233   0.0000      13.569024       369.2319 
 234   0.0000      14.001215       380.9924 
 235   0.0000      14.006438       381.1345 
 236   0.0000      14.160203       385.3187 
 237   0.0000      14.160568       385.3286 
 238   0.0000      14.290971       388.8771 
 239   0.0000      14.291788       388.8993 
 240   0.0000      14.811030       403.0286 
 241   0.0000      14.814714       403.1289 
 242   0.0000      15.128448       411.6660 
 243   0.0000      15.463106       420.7725 
 244   0.0000      15.469434       420.9447 
 245   0.0000      15.905811       432.8191 
 246   0.0000      15.907979       432.8781 
 247   0.0000      15.990168       435.1146 
 248   0.0000      16.395886       446.1547 
 249   0.0000      16.414459       446.6601 
 250   0.0000      16.424506       446.9335 
 251   0.0000      16.688355       454.1132 
 252   0.0000      16.694598       454.2831 
 253   0.0000      16.872149       459.1145 
 254   0.0000      16.872157       459.1147 
 255   0.0000      17.136190       466.2994 
 256   0.0000      17.136355       466.3039 
 257   0.0000      17.887549       486.7450 
 258   0.0000      17.888937       486.7827 
 259   0.0000      18.614728       506.5325 
 260   0.0000      18.617279       506.6019 
 261   0.0000      18.647837       507.4334 
 262   0.0000      18.785567       511.1813 
 263   0.0000      18.792009       511.3566 
 264   0.0000      20.377918       554.5113 
 265   0.0000      22.882540       622.6656 
 266   0.0000      22.885103       622.7353 
 267   0.0000      23.787343       647.2865 
 268   0.0000      24.250742       659.8962 
 269   0.0000      24.259816       660.1431 
 270   0.0000      25.720809       699.8988 
 271   0.0000      26.092017       709.9999 
 272   0.0000      26.106954       710.4063 
 273   0.0000      28.650895       779.6305 
 274   0.0000      31.024438       844.2179 
 275   0.0000      31.775717       864.6612 
 276   0.0000      31.781846       864.8280 
 277   0.0000      34.190277       930.3647 
 278   0.0000      47.498885      1292.5104 
 279   0.0000      47.502441      1292.6071 
 280   0.0000      47.870364      1302.6188 
 281   0.0000      47.879997      1302.8810 
 282   0.0000      49.170582      1337.9995 
 283   0.0000      66.445863      1808.0838 
 284   0.0000      66.447236      1808.1212 
 285   0.0000      67.249198      1829.9437 
 286   0.0000      67.253808      1830.0692 
 287   0.0000      68.952576      1876.2950 
 288   0.0000     105.408199      2868.3029 
 289   0.0000     143.229909      3897.4840 

                 SPIN DOWN ORBITALS
  NO   OCC          E(Eh)            E(eV) 
   0   1.0000     -18.880718      -513.7705 
   1   1.0000     -14.105263      -383.8237 
   2   1.0000      -1.137915       -30.9642 
   3   1.0000      -0.595031       -16.1916 
   4   1.0000      -0.463667       -12.6170 
   5   1.0000      -0.426068       -11.5939 
   6   1.0000      -0.411636       -11.2012 
   7   0.0000      -0.141922        -3.8619 
   8   0.0000      -0.097785        -2.6609 
   9   0.0000       0.002867         0.0780 
  10   0.0000       0.027909         0.7594 
  11   0.0000       0.028771         0.7829 
  12   0.0000       0.030292         0.8243 
  13   0.0000       0.060133         1.6363 
  14   0.0000       0.064580         1.7573 
  15   0.0000       0.065782         1.7900 
  16   0.0000       0.103784         2.8241 
  17   0.0000       0.121164         3.2970 
  18   0.0000       0.126342         3.4379 
  19   0.0000       0.126707         3.4479 
  20   0.0000       0.139339         3.7916 
  21   0.0000       0.139448         3.7946 
  22   0.0000       0.172692         4.6992 
  23   0.0000       0.186487         5.0746 
  24   0.0000       0.188811         5.1378 
  25   0.0000       0.192113         5.2277 
  26   0.0000       0.202697         5.5157 
  27   0.0000       0.202729         5.5165 
  28   0.0000       0.202768         5.5176 
  29   0.0000       0.206689         5.6243 
  30   0.0000       0.272977         7.4281 
  31   0.0000       0.296115         8.0577 
  32   0.0000       0.296119         8.0578 
  33   0.0000       0.317985         8.6528 
  34   0.0000       0.323690         8.8080 
  35   0.0000       0.334946         9.1143 
  36   0.0000       0.360380         9.8064 
  37   0.0000       0.360443         9.8082 
  38   0.0000       0.366762         9.9801 
  39   0.0000       0.372188        10.1277 
  40   0.0000       0.377018        10.2592 
  41   0.0000       0.379296        10.3212 
  42   0.0000       0.386549        10.5185 
  43   0.0000       0.386553        10.5186 
  44   0.0000       0.426074        11.5941 
  45   0.0000       0.426389        11.6026 
  46   0.0000       0.428968        11.6728 
  47   0.0000       0.433171        11.7872 
  48   0.0000       0.474934        12.9236 
  49   0.0000       0.486792        13.2463 
  50   0.0000       0.486959        13.2508 
  51   0.0000       0.498310        13.5597 
  52   0.0000       0.500417        13.6170 
  53   0.0000       0.500417        13.6170 
  54   0.0000       0.564443        15.3593 
  55   0.0000       0.574800        15.6411 
  56   0.0000       0.591167        16.0865 
  57   0.0000       0.594965        16.1898 
  58   0.0000       0.595106        16.1937 
  59   0.0000       0.630337        17.1523 
  60   0.0000       0.639907        17.4128 
  61   0.0000       0.640205        17.4209 
  62   0.0000       0.671493        18.2723 
  63   0.0000       0.671498        18.2724 
  64   0.0000       0.681985        18.5578 
  65   0.0000       0.681985        18.5578 
  66   0.0000       0.710395        19.3308 
  67   0.0000       0.721006        19.6196 
  68   0.0000       0.741129        20.1671 
  69   0.0000       0.753173        20.4949 
  70   0.0000       0.753192        20.4954 
  71   0.0000       0.779949        21.2235 
  72   0.0000       0.780081        21.2271 
  73   0.0000       0.788813        21.4647 
  74   0.0000       0.795442        21.6451 
  75   0.0000       0.812717        22.1152 
  76   0.0000       0.812717        22.1152 
  77   0.0000       0.838868        22.8268 
  78   0.0000       0.846437        23.0327 
  79   0.0000       0.848398        23.0861 
  80   0.0000       0.893440        24.3117 
  81   0.0000       0.905107        24.6292 
  82   0.0000       0.907212        24.6865 
  83   0.0000       0.907540        24.6954 
  84   0.0000       0.908304        24.7162 
  85   0.0000       0.909074        24.7372 
  86   0.0000       0.911248        24.7963 
  87   0.0000       0.925577        25.1862 
  88   0.0000       0.925819        25.1928 
  89   0.0000       0.948458        25.8089 
  90   0.0000       0.948458        25.8089 
  91   0.0000       0.953937        25.9579 
  92   0.0000       0.976474        26.5712 
  93   0.0000       0.976478        26.5713 
  94   0.0000       1.002136        27.2695 
  95   0.0000       1.002136        27.2695 
  96   0.0000       1.037174        28.2229 
  97   0.0000       1.037204        28.2238 
  98   0.0000       1.111465        30.2445 
  99   0.0000       1.111465        30.2445 
 100   0.0000       1.150333        31.3022 
 101   0.0000       1.156559        31.4716 
 102   0.0000       1.158487        31.5240 
 103   0.0000       1.182213        32.1697 
 104   0.0000       1.204522        32.7767 
 105   0.0000       1.213980        33.0341 
 106   0.0000       1.277545        34.7638 
 107   0.0000       1.347563        36.6691 
 108   0.0000       1.347602        36.6701 
 109   0.0000       1.458355        39.6838 
 110   0.0000       1.487108        40.4663 
 111   0.0000       1.504467        40.9386 
 112   0.0000       1.566618        42.6298 
 113   0.0000       1.587878        43.2084 
 114   0.0000       1.635631        44.5078 
 115   0.0000       1.669837        45.4386 
 116   0.0000       1.689401        45.9709 
 117   0.0000       1.815084        49.3910 
 118   0.0000       1.845080        50.2072 
 119   0.0000       1.845169        50.2096 
 120   0.0000       1.891837        51.4795 
 121   0.0000       1.891846        51.4798 
 122   0.0000       1.965481        53.4835 
 123   0.0000       1.965899        53.4948 
 124   0.0000       2.086547        56.7778 
 125   0.0000       2.125022        57.8248 
 126   0.0000       2.125595        57.8404 
 127   0.0000       2.143959        58.3401 
 128   0.0000       2.163731        58.8781 
 129   0.0000       2.314752        62.9876 
 130   0.0000       2.379735        64.7559 
 131   0.0000       2.395668        65.1894 
 132   0.0000       2.434604        66.2489 
 133   0.0000       2.434829        66.2551 
 134   0.0000       2.705760        73.6275 
 135   0.0000       2.889586        78.6296 
 136   0.0000       2.909199        79.1633 
 137   0.0000       2.922153        79.5158 
 138   0.0000       2.930214        79.7352 
 139   0.0000       2.948657        80.2370 
 140   0.0000       3.204406        87.1963 
 141   0.0000       3.230320        87.9015 
 142   0.0000       3.238018        88.1109 
 143   0.0000       3.415942        92.9525 
 144   0.0000       3.758318       102.2690 
 145   0.0000       3.795909       103.2919 
 146   0.0000       3.987149       108.4958 
 147   0.0000       4.051139       110.2371 
 148   0.0000       4.051475       110.2462 
 149   0.0000       4.105872       111.7265 
 150   0.0000       4.127778       112.3225 
 151   0.0000       4.254440       115.7692 
 152   0.0000       4.418942       120.2455 
 153   0.0000       4.443102       120.9030 
 154   0.0000       4.443435       120.9120 
 155   0.0000       4.447865       121.0326 
 156   0.0000       4.601129       125.2031 
 157   0.0000       4.601192       125.2048 
 158   0.0000       4.621020       125.7444 
 159   0.0000       4.911925       133.6603 
 160   0.0000       4.911982       133.6618 
 161   0.0000       4.955161       134.8368 
 162   0.0000       4.956191       134.8648 
 163   0.0000       4.956193       134.8649 
 164   0.0000       4.983429       135.6060 
 165   0.0000       5.222381       142.1082 
 166   0.0000       5.222395       142.1086 
 167   0.0000       5.271448       143.4434 
 168   0.0000       5.350891       145.6051 
 169   0.0000       5.353582       145.6784 
 170   0.0000       5.537206       150.6750 
 171   0.0000       5.888013       160.2210 
 172   0.0000       5.888096       160.2232 
 173   0.0000       5.915191       160.9605 
 174   0.0000       5.915194       160.9606 
 175   0.0000       6.091700       165.7636 
 176   0.0000       6.119764       166.5272 
 177   0.0000       6.487383       176.5307 
 178   0.0000       6.487409       176.5314 
 179   0.0000       6.557718       178.4446 
 180   0.0000       6.592095       179.3800 
 181   0.0000       6.692646       182.1162 
 182   0.0000       6.766493       184.1256 
 183   0.0000       6.766863       184.1357 
 184   0.0000       6.952765       189.1944 
 185   0.0000       7.174800       195.2362 
 186   0.0000       7.446133       202.6196 
 187   0.0000       7.477310       203.4679 
 188   0.0000       7.726635       210.2524 
 189   0.0000       7.726743       210.2554 
 190   0.0000       8.153917       221.8794 
 191   0.0000       8.373536       227.8555 
 192   0.0000       8.399979       228.5750 
 193   0.0000       8.933988       243.1062 
 194   0.0000       8.980563       244.3735 
 195   0.0000       9.042735       246.0653 
 196   0.0000       9.318761       253.5764 
 197   0.0000       9.318901       253.5802 
 198   0.0000       9.941212       270.5141 
 199   0.0000      10.163268       276.5566 
 200   0.0000      10.193719       277.3852 
 201   0.0000      10.523503       286.3591 
 202   0.0000      10.916499       297.0531 
 203   0.0000      10.949646       297.9550 
 204   0.0000      10.965099       298.3755 
 205   0.0000      10.965177       298.3776 
 206   0.0000      11.008029       299.5437 
 207   0.0000      11.008545       299.5577 
 208   0.0000      11.082045       301.5578 
 209   0.0000      11.082049       301.5579 
 210   0.0000      11.115572       302.4701 
 211   0.0000      11.150801       303.4287 
 212   0.0000      11.261649       306.4450 
 213   0.0000      11.261841       306.4503 
 214   0.0000      11.338859       308.5461 
 215   0.0000      11.338862       308.5461 
 216   0.0000      11.602397       315.7173 
 217   0.0000      11.671372       317.5942 
 218   0.0000      11.918639       324.3226 
 219   0.0000      11.918853       324.3285 
 220   0.0000      11.969648       325.7107 
 221   0.0000      11.969649       325.7107 
 222   0.0000      12.293507       334.5233 
 223   0.0000      12.293508       334.5234 
 224   0.0000      12.612262       343.1971 
 225   0.0000      12.612297       343.1981 
 226   0.0000      12.781601       347.8050 
 227   0.0000      12.783214       347.8489 
 228   0.0000      12.882990       350.5640 
 229   0.0000      13.127556       357.2189 
 230   0.0000      13.156099       357.9956 
 231   0.0000      13.180294       358.6540 
 232   0.0000      13.594169       369.9161 
 233   0.0000      13.594192       369.9168 
 234   0.0000      14.010755       381.2520 
 235   0.0000      14.044625       382.1737 
 236   0.0000      14.235341       387.3633 
 237   0.0000      14.235385       387.3645 
 238   0.0000      14.341475       390.2514 
 239   0.0000      14.341570       390.2540 
 240   0.0000      14.846871       404.0039 
 241   0.0000      14.849243       404.0685 
 242   0.0000      15.154351       412.3709 
 243   0.0000      15.474493       421.0824 
 244   0.0000      15.513844       422.1532 
 245   0.0000      15.928567       433.4383 
 246   0.0000      15.932236       433.5382 
 247   0.0000      16.017584       435.8606 
 248   0.0000      16.414601       446.6640 
 249   0.0000      16.427873       447.0251 
 250   0.0000      16.464555       448.0233 
 251   0.0000      16.755301       455.9349 
 252   0.0000      16.755886       455.9508 
 253   0.0000      16.910489       460.1578 
 254   0.0000      16.910537       460.1591 
 255   0.0000      17.163456       467.0414 
 256   0.0000      17.163477       467.0419 
 257   0.0000      17.908112       487.3045 
 258   0.0000      17.908491       487.3148 
 259   0.0000      18.621404       506.7142 
 260   0.0000      18.652740       507.5669 
 261   0.0000      18.665090       507.9029 
 262   0.0000      18.794998       511.4379 
 263   0.0000      18.826302       512.2897 
 264   0.0000      20.391369       554.8774 
 265   0.0000      22.923266       623.7738 
 266   0.0000      22.923309       623.7749 
 267   0.0000      23.813527       647.9990 
 268   0.0000      24.261795       660.1970 
 269   0.0000      24.289335       660.9464 
 270   0.0000      25.732315       700.2119 
 271   0.0000      26.122627       710.8328 
 272   0.0000      26.161630       711.8942 
 273   0.0000      28.672982       780.2315 
 274   0.0000      31.038988       844.6138 
 275   0.0000      31.789392       865.0333 
 276   0.0000      31.817944       865.8103 
 277   0.0000      34.201634       930.6738 
 278   0.0000      47.547773      1293.8407 
 279   0.0000      47.548182      1293.8518 
 280   0.0000      47.886096      1303.0469 
 281   0.0000      47.915436      1303.8453 
 282   0.0000      49.190578      1338.5437 
 283   0.0000      66.473236      1808.8287 
 284   0.0000      66.473293      1808.8302 
 285   0.0000      67.255844      1830.1246 
 286   0.0000      67.276327      1830.6819 
 287   0.0000      68.963729      1876.5985 
 288   0.0000     105.423634      2868.7229 
 289   0.0000     143.239502      3897.7450 

                    ********************************
                    * MULLIKEN POPULATION ANALYSIS *
                    ********************************

--------------------------------------------
MULLIKEN ATOMIC CHARGES AND SPIN POPULATIONS
--------------------------------------------
   0 N :    0.077595    0.627557
   1 O :   -0.077595    0.372443
Sum of atomic charges         :   -0.0000000
Sum of atomic spin populations:    1.0000000

-----------------------------------------------------
MULLIKEN REDUCED ORBITAL CHARGES AND SPIN POPULATIONS
-----------------------------------------------------
CHARGE
  0 N s       :     3.878059  s :     3.878059
      pz      :     0.960772  p :     2.946097
      px      :     1.294299
      py      :     0.691026
      dz2     :     0.019924  d :     0.084804
      dxz     :     0.037468
      dyz     :     0.027154
      dx2y2   :     0.000257
      dxy     :     0.000000
      f0      :     0.002212  f :     0.012181
      f+1     :     0.006388
      f-1     :     0.003523
      f+2     :     0.000021
      f-2     :     0.000000
      f+3     :     0.000018
      f-3     :     0.000018
      g0      :     0.000461  g :     0.001156
      g+1     :     0.000197
      g-1     :     0.000494
      g+2     :     0.000002
      g-2     :     0.000000
      g+3     :     0.000002
      g-3     :     0.000001
      g+4     :     0.000000
      g-4     :     0.000000
      h0      :     0.000071  h :     0.000108
      h+1     :     0.000004
      h-1     :     0.000032
      h+2     :     0.000000
      h-2     :     0.000000
      h+3     :     0.000000
      h-3     :     0.000000
      h+4     :     0.000000
      h-4     :     0.000000
      h+5     :     0.000000
      h-5     :     0.000000
  1 O s       :     3.867858  s :     3.867858
      pz      :     1.252882  p :     4.125262
      px      :     1.617177
      py      :     1.255203
      dz2     :     0.014990  d :     0.073289
      dxz     :     0.038481
      dyz     :     0.019752
      dx2y2   :     0.000067
      dxy     :     0.000000
      f0      :     0.001917  f :     0.009835
      f+1     :     0.005379
      f-1     :     0.002500
      f+2     :     0.000015
      f-2     :     0.000000
      f+3     :     0.000013
      f-3     :     0.000012
      g0      :     0.000432  g :     0.001181
      g+1     :     0.000478
      g-1     :     0.000265
      g+2     :     0.000004
      g-2     :     0.000000
      g+3     :     0.000001
      g-3     :     0.000001
      g+4     :     0.000000
      g-4     :     0.000000
      h0      :     0.000055  h :     0.000170
      h+1     :     0.000096
      h-1     :     0.000018
      h+2     :     0.000001
      h-2     :     0.000000
      h+3     :     0.000000
      h-3     :     0.000000
      h+4     :     0.000000
      h-4     :     0.000000
      h+5     :     0.000000
      h-5     :     0.000000

SPIN
  0 N s       :    -0.047816  s :    -0.047816
      pz      :    -0.007217  p :     0.667681
      px      :     0.660666
      py      :     0.014232
      dz2     :    -0.000224  d :     0.008791
      dxz     :     0.009483
      dyz     :    -0.000224
      dx2y2   :    -0.000244
      dxy     :    -0.000000
      f0      :    -0.000647  f :    -0.000410
      f+1     :     0.000956
      f-1     :    -0.000671
      f+2     :    -0.000015
      f-2     :    -0.000000
      f+3     :    -0.000016
      f-3     :    -0.000017
      g0      :    -0.000117  g :    -0.000639
      g+1     :    -0.000458
      g-1     :    -0.000065
      g+2     :    -0.000000
      g-2     :    -0.000000
      g+3     :     0.000000
      g-3     :     0.000000
      g+4     :     0.000000
      g-4     :     0.000000
      h0      :    -0.000011  h :    -0.000048
      h+1     :    -0.000037
      h-1     :     0.000000
      h+2     :    -0.000000
      h-2     :    -0.000000
      h+3     :    -0.000000
      h-3     :    -0.000000
      h+4     :     0.000000
      h-4     :     0.000000
      h+5     :     0.000000
      h-5     :     0.000000
  1 O s       :     0.022228  s :     0.022228
      pz      :     0.030283  p :     0.326845
      px      :     0.308952
      py      :    -0.012389
      dz2     :     0.003956  d :     0.020783
      dxz     :     0.017632
      dyz     :    -0.000745
      dx2y2   :    -0.000060
      dxy     :    -0.000000
      f0      :    -0.000014  f :     0.002175
      f+1     :     0.002400
      f-1     :    -0.000181
      f+2     :    -0.000008
      f-2     :    -0.000000
      f+3     :    -0.000011
      f-3     :    -0.000011
      g0      :    -0.000080  g :     0.000323
      g+1     :     0.000342
      g-1     :     0.000064
      g+2     :    -0.000002
      g-2     :    -0.000000
      g+3     :    -0.000001
      g-3     :    -0.000000
      g+4     :     0.000000
      g-4     :     0.000000
      h0      :    -0.000011  h :     0.000088
      h+1     :     0.000091
      h-1     :     0.000009
      h+2     :    -0.000001
      h-2     :    -0.000000
      h+3     :    -0.000001
      h-3     :    -0.000000
      h+4     :     0.000000
      h-4     :     0.000000
      h+5     :     0.000000
      h-5     :     0.000000


                     *******************************
                     * LOEWDIN POPULATION ANALYSIS *
                     *******************************

-------------------------------------------
LOEWDIN ATOMIC CHARGES AND SPIN POPULATIONS
-------------------------------------------
   0 N :   -0.070668    0.588082
   1 O :    0.070668    0.411918

----------------------------------------------------
LOEWDIN REDUCED ORBITAL CHARGES AND SPIN POPULATIONS
----------------------------------------------------
CHARGE
  0 N s       :     3.274601  s :     3.274601
      pz      :     1.274044  p :     3.023457
      px      :     1.084073
      py      :     0.665341
      dz2     :     0.230847  d :     0.511712
      dxz     :     0.184536
      dyz     :     0.096093
      dx2y2   :     0.000235
      dxy     :     0.000000
      f0      :     0.070503  f :     0.201488
      f+1     :     0.084203
      f-1     :     0.046720
      f+2     :     0.000025
      f-2     :     0.000000
      f+3     :     0.000018
      f-3     :     0.000018
      g0      :     0.015075  g :     0.048451
      g+1     :     0.020320
      g-1     :     0.013052
      g+2     :     0.000002
      g-2     :     0.000000
      g+3     :     0.000001
      g-3     :     0.000001
      g+4     :     0.000000
      g-4     :     0.000000
      h0      :     0.003968  h :     0.010958
      h+1     :     0.004136
      h-1     :     0.002853
      h+2     :     0.000001
      h-2     :     0.000000
      h+3     :     0.000000
      h-3     :     0.000000
      h+4     :     0.000000
      h-4     :     0.000000
      h+5     :     0.000000
      h-5     :     0.000000
  1 O s       :     3.351418  s :     3.351418
      pz      :     1.513198  p :     3.991236
      px      :     1.377230
      py      :     1.100809
      dz2     :     0.197350  d :     0.408139
      dxz     :     0.163950
      dyz     :     0.046770
      dx2y2   :     0.000069
      dxy     :     0.000000
      f0      :     0.052561  f :     0.138002
      f+1     :     0.064257
      f-1     :     0.021137
      f+2     :     0.000022
      f-2     :     0.000000
      f+3     :     0.000013
      f-3     :     0.000012
      g0      :     0.012662  g :     0.032128
      g+1     :     0.013808
      g-1     :     0.005647
      g+2     :     0.000008
      g-2     :     0.000000
      g+3     :     0.000001
      g-3     :     0.000001
      g+4     :     0.000000
      g-4     :     0.000000
      h0      :     0.003406  h :     0.008409
      h+1     :     0.003452
      h-1     :     0.001545
      h+2     :     0.000004
      h-2     :     0.000000
      h+3     :     0.000000
      h-3     :     0.000000
      h+4     :     0.000000
      h-4     :     0.000000
      h+5     :     0.000000
      h-5     :     0.000000

SPIN
  0 N s       :     0.004114  s :     0.004114
      pz      :    -0.003670  p :     0.464785
      px      :     0.458206
      py      :     0.010249
      dz2     :     0.001326  d :     0.078673
      dxz     :     0.079751
      dyz     :    -0.002187
      dx2y2   :    -0.000218
      dxy     :    -0.000000
      f0      :     0.000043  f :     0.032481
      f+1     :     0.033589
      f-1     :    -0.001098
      f+2     :    -0.000019
      f-2     :    -0.000000
      f+3     :    -0.000017
      f-3     :    -0.000018
      g0      :     0.000024  g :     0.006835
      g+1     :     0.006891
      g-1     :    -0.000079
      g+2     :    -0.000001
      g-2     :    -0.000000
      g+3     :     0.000000
      g-3     :     0.000000
      g+4     :     0.000000
      g-4     :     0.000000
      h0      :    -0.000027  h :     0.001195
      h+1     :     0.001229
      h-1     :    -0.000006
      h+2     :    -0.000001
      h-2     :    -0.000000
      h+3     :    -0.000000
      h-3     :    -0.000000
      h+4     :     0.000000
      h-4     :     0.000000
      h+5     :     0.000000
      h-5     :     0.000000
  1 O s       :     0.001305  s :     0.001305
      pz      :    -0.004646  p :     0.229602
      px      :     0.242658
      py      :    -0.008411
      dz2     :     0.001838  d :     0.123663
      dxz     :     0.121151
      dyz     :     0.000738
      dx2y2   :    -0.000064
      dxy     :    -0.000000
      f0      :     0.000301  f :     0.046438
      f+1     :     0.045587
      f-1     :     0.000590
      f+2     :    -0.000018
      f-2     :    -0.000000
      f+3     :    -0.000011
      f-3     :    -0.000011
      g0      :    -0.000164  g :     0.008921
      g+1     :     0.008895
      g-1     :     0.000197
      g+2     :    -0.000006
      g-2     :    -0.000000
      g+3     :    -0.000000
      g-3     :    -0.000000
      g+4     :     0.000000
      g-4     :     0.000000
      h0      :    -0.000115  h :     0.001989
      h+1     :     0.002071
      h-1     :     0.000037
      h+2     :    -0.000004
      h-2     :    -0.000000
      h+3     :    -0.000000
      h-3     :    -0.000000
      h+4     :     0.000000
      h-4     :     0.000000
      h+5     :     0.000000
      h-5     :     0.000000


                      *****************************
                      * MAYER POPULATION ANALYSIS *
                      *****************************

  NA   - Mulliken gross atomic population
  ZA   - Total nuclear charge
  QA   - Mulliken gross atomic charge
  VA   - Mayer's total valence
  BVA  - Mayer's bonded valence
  FA   - Mayer's free valence

  ATOM       NA         ZA         QA         VA         BVA        FA
  0 N      6.9224     7.0000     0.0776     2.6471     2.1813     0.4658
  1 O      8.0776     8.0000    -0.0776     2.3089     2.1813     0.1276

  Mayer bond orders larger than 0.1
B(  0-N ,  1-O ) :   2.1813 

-------
TIMINGS
-------

Total SCF time: 0 days 0 hours 5 min 8 sec 

Total time                  ....     308.551 sec
Sum of individual times     ....     307.885 sec  ( 99.8%)

Fock matrix formation       ....     306.057 sec  ( 99.2%)
  XC integration            ....       7.238 sec  (  2.4% of F)
    Basis function eval.    ....       0.497 sec  (  6.9% of XC)
    Density eval.           ....       1.394 sec  ( 19.3% of XC)
    XC-Functional eval.     ....       0.096 sec  (  1.3% of XC)
    XC-Potential eval.      ....       4.735 sec  ( 65.4% of XC)
Diagonalization             ....       0.693 sec  (  0.2%)
Density matrix formation    ....       0.013 sec  (  0.0%)
Population analysis         ....       0.056 sec  (  0.0%)
Initial guess               ....       0.364 sec  (  0.1%)
Orbital Transformation      ....       0.000 sec  (  0.0%)
Orbital Orthonormalization  ....       0.000 sec  (  0.0%)
DIIS solution               ....       0.462 sec  (  0.1%)
Grid generation             ....       0.240 sec  (  0.1%)

-------------------------   --------------------
FINAL SINGLE POINT ENERGY      -129.825539089510
-------------------------   --------------------


                            ***************************************
                            *     ORCA property calculations      *
                            ***************************************

                                    ---------------------
                                    Active property flags
                                    ---------------------
   (+) Dipole Moment


------------------------------------------------------------------------------
                       ORCA ELECTRIC PROPERTIES CALCULATION
------------------------------------------------------------------------------

Dipole Moment Calculation                       ... on
Quadrupole Moment Calculation                   ... off
Polarizability Calculation                      ... off
GBWName                                         ... no_pbe_-0001_z.gbw
Electron density file                           ... no_pbe_-0001_z.scfp.tmp
The origin for moment calculation is the CENTER OF MASS  = ( 0.000000,  0.000000  1.162557)

-------------
DIPOLE MOMENT
-------------
                                X             Y             Z
Electronic contribution:      0.00000       0.00000       0.06947
Nuclear contribution   :      0.00000       0.00000       0.00458
                        -----------------------------------------
Total Dipole Moment    :      0.00000       0.00000       0.07404
                        -----------------------------------------
Magnitude (a.u.)       :      0.07404
Magnitude (Debye)      :      0.18821



--------------------
Rotational spectrum 
--------------------
 
Rotational constants in cm-1:     0.000000     1.695532     1.695532 
Rotational constants in MHz :     0.000000 50830.768128 50830.768128 

 Dipole components along the rotational axes: 
x,y,z [a.u.] :     0.074045     0.000000     0.000000 
x,y,z [Debye]:     0.188207     0.000000     0.000000 

 

Timings for individual modules:

Sum of individual times         ...      310.231 sec (=   5.171 min)
GTO integral calculation        ...        1.363 sec (=   0.023 min)   0.4 %
SCF iterations                  ...      308.869 sec (=   5.148 min)  99.6 %
                             ****ORCA TERMINATED NORMALLY****
TOTAL RUN TIME: 0 days 0 hours 5 minutes 11 seconds 19 msec
