
                                 *****************
                                 * O   R   C   A *
                                 *****************

           --- An Ab Initio, DFT and Semiempirical electronic structure package ---

                  #######################################################
                  #                        -***-                        #
                  #          Department of theory and spectroscopy      #
                  #               Directorship: Frank Neese             #
                  #        Max Planck Institute fuer Kohlenforschung    #
                  #                Kaiser Wilhelm Platz 1               #
                  #                 D-45470 Muelheim/Ruhr               #
                  #                      Germany                        #
                  #                                                     #
                  #                  All rights reserved                #
                  #                        -***-                        #
                  #######################################################


                         Program Version 4.1.2  - RELEASE  -


 With contributions from (in alphabetic order):
   Daniel Aravena         : Magnetic Properties
   Michael Atanasov       : Ab Initio Ligand Field Theory
   Alexander A. Auer      : GIAO ZORA
   Ute Becker             : Parallelization
   Giovanni Bistoni       : ED, Open-shell LED
   Martin Brehm           : Molecular dynamics
   Dmytro Bykov           : SCF Hessian
   Vijay G. Chilkuri      : MRCI spin determinant printing
   Dipayan Datta          : RHF DLPNO-CCSD density
   Achintya Kumar Dutta   : EOM-CC, STEOM-CC
   Dmitry Ganyushin       : Spin-Orbit,Spin-Spin,Magnetic field MRCI
   Miquel Garcia          : C-PCM Hessian
   Yang Guo               : DLPNO-NEVPT2, CIM, IAO-localization
   Andreas Hansen         : Spin unrestricted coupled pair/coupled cluster methods
   Benjamin Helmich-Paris : CASSCF linear response (MC-RPA)
   Lee Huntington         : MR-EOM, pCC
   Robert Izsak           : Overlap fitted RIJCOSX, COSX-SCS-MP3, EOM
   Christian Kollmar      : KDIIS, OOCD, Brueckner-CCSD(T), CCSD density
   Simone Kossmann        : Meta GGA functionals, TD-DFT gradient, OOMP2, MP2 Hessian
   Martin Krupicka        : AUTO-CI
   Lucas Lang             : DCDCAS
   Dagmar Lenk            : GEPOL surface, SMD
   Dimitrios Liakos       : Extrapolation schemes; parallel MDCI
   Dimitrios Manganas     : ROCIS; embedding schemes
   Dimitrios Pantazis     : SARC Basis sets
   Taras Petrenko         : DFT Hessian,TD-DFT gradient, ASA, ECA, R-Raman, ABS, FL, XAS/XES, NRVS
   Peter Pinski           : DLPNO-MP2, DLPNO-MP2 Gradient
   Christoph Reimann      : Effective Core Potentials
   Marius Retegan         : Local ZFS, SOC
   Christoph Riplinger    : Optimizer, TS searches, QM/MM, DLPNO-CCSD(T), (RO)-DLPNO pert. Triples
   Tobias Risthaus        : Range-separated hybrids, TD-DFT gradient, RPA, STAB
   Michael Roemelt        : Restricted open shell CIS
   Masaaki Saitow         : Open-shell DLPNO
   Barbara Sandhoefer     : DKH picture change effects
   Avijit Sen             : IP-ROCIS
   Kantharuban Sivalingam : CASSCF convergence, NEVPT2, FIC-MRCI
   Bernardo de Souza      : ESD, SOC TD-DFT
   Georgi Stoychev        : AutoAux, RI-MP2 NMR
   Willem Van den Heuvel  : Paramagnetic NMR
   Boris Wezisla          : Elementary symmetry handling
   Frank Wennmohs         : Technical directorship


 We gratefully acknowledge several colleagues who have allowed us to
 interface, adapt or use parts of their codes:
   Stefan Grimme, W. Hujo, H. Kruse,             : VdW corrections, initial TS optimization,
                  C. Bannwarth                     DFT functionals, gCP, sTDA/sTD-DF
   Ed Valeev                                     : LibInt (2-el integral package), F12 methods
   Garnet Chan, S. Sharma, J. Yang, R. Olivares  : DMRG
   Ulf Ekstrom                                   : XCFun DFT Library
   Mihaly Kallay                                 : mrcc  (arbitrary order and MRCC methods)
   Andreas Klamt, Michael Diedenhofen            : otool_cosmo (COSMO solvation model)
   Jiri Pittner, Ondrej Demel                    : Mk-CCSD
   Frank Weinhold                                : gennbo (NPA and NBO analysis)
   Christopher J. Cramer and Donald G. Truhlar   : smd solvation model
   Lars Goerigk                                  : TD-DFT with DH, B97 family of functionals
   V. Asgeirsson, H. Jonsson                     : NEB implementation
   FAccTs GmbH                                   : IRC, NEB, NEB-TS, Multilevel


 Your calculation uses the libint2 library for the computation of 2-el integrals
 For citations please refer to: http://libint.valeyev.net

 This ORCA versions uses:
   CBLAS   interface :  Fast vector & matrix operations
   LAPACKE interface :  Fast linear algebra routines
   SCALAPACK package :  Parallel linear algebra routines


----- Orbital basis set information -----
Your calculation utilizes the basis: aug-pc-4
   H, C-F              : F. Jensen, J. Chem. Phys. 115, 9113 (2001).
                         F. Jensen, J. Chem. Phys. 116, 7372 (2002).
                         F. Jensen, J. Chem. Phys. 117, 9234 (2002).
   Si-Cl               : F. Jensen, T. Helgaker, J. Chem. Phys. 121, 3463 (2004).
   He-B, Ne-Mg, Al, Ar : F. Jensen, J. Phys. Chem. A 111, 11198 (2007).
   K, Ca, Ga-Kr        : F. Jensen, J. Chem. Phys. 136, 094110 (2012).
   Sc-Zn               : F. Jensen, J. Chem. Phys. 138, 014107 (2013).

================================================================================
                                        WARNINGS
                       Please study these warnings very carefully!
================================================================================


INFO   : the flag for use of LIBINT has been found!

================================================================================
                                       INPUT FILE
================================================================================
NAME = no_pbe_+0001_y.inp
|  1> !uks pbe nori aug-pc-4 grid5 nofinalgrid verytightscf
|  2> 
|  3> %maxcore 6000
|  4> 
|  5> %pal nprocs 4 end
|  6> 
|  7> %scf
|  8> 	efield 0.0, 0.001, 0.0
|  9> 	maxiter 200
| 10> end
| 11> 
| 12> * xyz 0 2
| 13> N 0.0000 0.0000 0.0000
| 14> O 0.0000 0.0000 1.1538
| 15> *
| 16> 
| 17>                          ****END OF INPUT****
================================================================================

                       ****************************
                       * Single Point Calculation *
                       ****************************

---------------------------------
CARTESIAN COORDINATES (ANGSTROEM)
---------------------------------
  N      0.000000    0.000000    0.000000
  O      0.000000    0.000000    1.153800

----------------------------
CARTESIAN COORDINATES (A.U.)
----------------------------
  NO LB      ZA    FRAG     MASS         X           Y           Z
   0 N     7.0000    0    14.007    0.000000    0.000000    0.000000
   1 O     8.0000    0    15.999    0.000000    0.000000    2.180366

--------------------------------
INTERNAL COORDINATES (ANGSTROEM)
--------------------------------
 N      0   0   0     0.000000000000     0.00000000     0.00000000
 O      1   0   0     1.153800000000     0.00000000     0.00000000

---------------------------
INTERNAL COORDINATES (A.U.)
---------------------------
 N      0   0   0     0.000000000000     0.00000000     0.00000000
 O      1   0   0     2.180366013318     0.00000000     0.00000000

---------------------
BASIS SET INFORMATION
---------------------
There are 2 groups of distinct atoms

 Group   1 Type N   : 27s12p7d4f3g2h contracted to 9s8p7d4f3g2h pattern {1191111111/51111111/1111111/1111/111/11}
 Group   2 Type O   : 27s12p7d4f3g2h contracted to 9s8p7d4f3g2h pattern {1191111111/51111111/1111111/1111/111/11}

Atom   0N    basis set group =>   1
Atom   1O    basis set group =>   2


           ************************************************************
           *        Program running with 4 parallel MPI-processes     *
           *              working on a common directory               *
           ************************************************************
------------------------------------------------------------------------------
                           ORCA GTO INTEGRAL CALCULATION
------------------------------------------------------------------------------

                         BASIS SET STATISTICS AND STARTUP INFO

 # of primitive gaussian shells          ...  110
 # of primitive gaussian functions       ...  350
 # of contracted shells                  ...   66
 # of contracted basis functions         ...  290
 Highest angular momentum                ...    5
 Maximum contraction depth               ...   11
 Integral package used                   ... LIBINT
 Integral threshhold            Thresh   ...  1.000e-12
 Primitive cut-off              TCut     ...  1.000e-14


------------------------------ INTEGRAL EVALUATION ----------------------------


 * One electron integrals 
 Pre-screening matrix                    ... done
 Shell pair data                         ... done (   0.001 sec)


An Electric Field will be added: 0.000e+00 1.000e-03 0.000e+00 au

  ... done adding electric field perturbation



           ************************************************************
           *        Program running with 4 parallel MPI-processes     *
           *              working on a common directory               *
           ************************************************************
-------------------------------------------------------------------------------
                                 ORCA SCF
-------------------------------------------------------------------------------

------------
SCF SETTINGS
------------
Hamiltonian:
 Density Functional     Method          .... DFT(GTOs)
 Exchange Functional    Exchange        .... PBE
   PBE kappa parameter   XKappa         ....  0.804000
   PBE mue parameter    XMuePBE         ....  0.219520
 Correlation Functional Correlation     .... PBE
   PBE beta parameter  CBetaPBE         ....  0.066725
 LDA part of GGA corr.  LDAOpt          .... PW91-LDA
 Gradients option       PostSCFGGA      .... off
   Density functional embedding theory  .... OFF
   NL short-range parameter             ....  6.400000


General Settings:
 Integral files         IntName         .... no_pbe_+0001_y
 Hartree-Fock type      HFTyp           .... UHF
 Total Charge           Charge          ....    0
 Multiplicity           Mult            ....    2
 Number of Electrons    NEL             ....   15
 Basis Dimension        Dim             ....  290
 Nuclear Repulsion      ENuc            ....     25.6837611933 Eh

Convergence Acceleration:
 DIIS                   CNVDIIS         .... on
   Start iteration      DIISMaxIt       ....    12
   Startup error        DIISStart       ....  0.200000
   # of expansion vecs  DIISMaxEq       ....     5
   Bias factor          DIISBfac        ....   1.050
   Max. coefficient     DIISMaxC        ....  10.000
 Newton-Raphson         CNVNR           .... off
 SOSCF                  CNVSOSCF        .... off
 Level Shifting         CNVShift        .... on
   Level shift para.    LevelShift      ....    0.2500
   Turn off err/grad.   ShiftErr        ....    0.0010
 Zerner damping         CNVZerner       .... off
 Static damping         CNVDamp         .... on
   Fraction old density DampFac         ....    0.7000
   Max. Damping (<1)    DampMax         ....    0.9800
   Min. Damping (>=0)   DampMin         ....    0.0000
   Turn off err/grad.   DampErr         ....    0.1000
 Fernandez-Rico         CNVRico         .... off

SCF Procedure:
 Maximum # iterations   MaxIter         ....   200
 SCF integral mode      SCFMode         .... Direct
   Integral package                     .... LIBINT
 Reset frequency        DirectResetFreq ....    20
 Integral Threshold     Thresh          ....  1.000e-12 Eh
 Primitive CutOff       TCut            ....  1.000e-14 Eh

Convergence Tolerance:
 Convergence Check Mode ConvCheckMode   .... Total+1el-Energy
 Convergence forced     ConvForced      .... 0
 Energy Change          TolE            ....  1.000e-09 Eh
 1-El. energy change                    ....  1.000e-06 Eh
 DIIS Error             TolErr          ....  1.000e-08


Diagonalization of the overlap matrix:
Smallest eigenvalue                        ... 2.019e-06
Time for diagonalization                   ...    0.086 sec
Threshold for overlap eigenvalues          ... 1.000e-08
Number of eigenvalues below threshold      ... 0
Time for construction of square roots      ...    0.014 sec
Total time needed                          ...    0.100 sec

-------------------
DFT GRID GENERATION
-------------------

General Integration Accuracy     IntAcc      ...  5.010
Radial Grid Type                 RadialGrid  ... Gauss-Chebyshev
Angular Grid (max. acc.)         AngularGrid ... Lebedev-434
Angular grid pruning method      GridPruning ... 3 (G Style)
Weight generation scheme         WeightScheme... Becke
Basis function cutoff            BFCut       ...    1.0000e-12
Integration weight cutoff        WCut        ...    1.0000e-14
Grids for H and He will be reduced by one unit

# of grid points (after initial pruning)     ...  21432 (   0.0 sec)
# of grid points (after weights+screening)   ...  21342 (   0.0 sec)
nearest neighbour list constructed           ...    0.0 sec
Grid point re-assignment to atoms done       ...    0.0 sec
Grid point division into batches done        ...    0.2 sec
Reduced shell lists constructed in    0.2 sec

Total number of grid points                  ...    21342
Total number of batches                      ...      334
Average number of points per batch           ...       63
Average number of grid points per atom       ...    10671
Average number of shells per batch           ...    40.49 (61.35%)
Average number of basis functions per batch  ...   187.39 (64.62%)
Average number of large shells per batch     ...    34.79 (85.91%)
Average number of large basis fcns per batch ...   162.46 (86.70%)
Maximum spatial batch extension              ...  16.29, 16.29, 13.64 au
Average spatial batch extension              ...   1.36,  1.35,  1.17 au

Time for grid setup =    0.244 sec

------------------------------
INITIAL GUESS: MODEL POTENTIAL
------------------------------
Loading Hartree-Fock densities                     ... done
Calculating cut-offs                               ... done
Setting up the integral package                    ... done
Initializing the effective Hamiltonian             ... done
Starting the Coulomb interaction                   ... done (   0.0 sec)
Reading the grid                                   ... done
Mapping shells                                     ... done
Starting the XC term evaluation                    ... done (   0.2 sec)
  promolecular density results
     # of electrons  =     15.000002805
     EX              =    -14.595347118
     EC              =     -0.490731592
     EX+EC           =    -15.086078709
Transforming the Hamiltonian                       ... done (   0.0 sec)
Diagonalizing the Hamiltonian                      ... done (   0.0 sec)
Back transforming the eigenvectors                 ... done (   0.0 sec)
Now organizing SCF variables                       ... done
                      ------------------
                      INITIAL GUESS DONE (   0.6 sec)
                      ------------------
--------------
SCF ITERATIONS
--------------
ITER       Energy         Delta-E        Max-DP      RMS-DP      [F,P]     Damp
               ***  Starting incremental Fock matrix formation  ***
  0   -129.8173311621   0.000000000000 0.00543831  0.00005687  0.0755022 0.7000
  1   -129.8208071126  -0.003475950553 0.00414367  0.00003922  0.0239748 0.7000
                               ***Turning on DIIS***
  2   -129.8221619649  -0.001354852285 0.00947112  0.00008526  0.0146683 0.0000
  3   -129.8253360179  -0.003174053050 0.00262050  0.00002374  0.0120834 0.0000
  4   -129.8256098193  -0.000273801365 0.00048034  0.00000614  0.0016543 0.0000
  5   -129.8256221769  -0.000012357616 0.00024023  0.00000294  0.0013360 0.0000
  6   -129.8256254005  -0.000003223575 0.00044646  0.00000436  0.0004578 0.0000
  7   -129.8256265867  -0.000001186177 0.00005537  0.00000077  0.0003524 0.0000
  8   -129.8256268345  -0.000000247800 0.00002031  0.00000030  0.0000303 0.0000
  9   -129.8256268670  -0.000000032505 0.00000759  0.00000009  0.0000072 0.0000
 10   -129.8256268715  -0.000000004567 0.00000334  0.00000003  0.0000087 0.0000
                 **** Energy Check signals convergence ****

               *****************************************************
               *                     SUCCESS                       *
               *           SCF CONVERGED AFTER  11 CYCLES          *
               *****************************************************


----------------
TOTAL SCF ENERGY
----------------

Total Energy       :         -129.82562687 Eh           -3532.73491 eV

Components:
Nuclear Repulsion  :           25.68376119 Eh             698.89067 eV
Electronic Energy  :         -155.50938807 Eh           -4231.62558 eV
One Electron Energy:         -227.78292130 Eh           -6198.28840 eV
Two Electron Energy:           72.27353324 Eh            1966.66282 eV

Virial components:
Potential Energy   :         -259.25199777 Eh           -7054.60551 eV
Kinetic Energy     :          129.42637090 Eh            3521.87060 eV
Virial Ratio       :            2.00308481


DFT components:
N(Alpha)           :        8.000000351059 electrons
N(Beta)            :        7.000000370266 electrons
N(Total)           :       15.000000721325 electrons
E(X)               :      -14.728862569384 Eh       
E(C)               :       -0.489585774587 Eh       
E(XC)              :      -15.218448343971 Eh       
DFET-embed. en.    :        0.000000000000 Eh       

---------------
SCF CONVERGENCE
---------------

  Last Energy change         ...   -8.9551e-10  Tolerance :   1.0000e-09
  Last MAX-Density change    ...    2.6634e-06  Tolerance :   1.0000e-08
  Last RMS-Density change    ...    3.1244e-08  Tolerance :   1.0000e-09
  Last DIIS Error            ...    1.6258e-06  Tolerance :   1.0000e-08

             **** THE GBW FILE WAS UPDATED (no_pbe_+0001_y.gbw) ****
             **** DENSITY FILE WAS UPDATED (no_pbe_+0001_y.scfp.tmp) ****
             **** ENERGY FILE WAS UPDATED (no_pbe_+0001_y.en.tmp) ****
----------------------
UHF SPIN CONTAMINATION
----------------------

Warning: in a DFT calculation there is little theoretical justification to 
         calculate <S**2> as in Hartree-Fock theory. We will do it anyways
         but you should keep in mind that the values have only limited relevance

Expectation value of <S**2>     :     0.752014
Ideal value S*(S+1) for S=0.5   :     0.750000
Deviation                       :     0.002014

----------------
ORBITAL ENERGIES
----------------
                 SPIN UP ORBITALS
  NO   OCC          E(Eh)            E(eV) 
   0   1.0000     -18.889869      -514.0195 
   1   1.0000     -14.119330      -384.2065 
   2   1.0000      -1.154623       -31.4189 
   3   1.0000      -0.622343       -16.9348 
   4   1.0000      -0.474574       -12.9138 
   5   1.0000      -0.472775       -12.8649 
   6   1.0000      -0.432242       -11.7619 
   7   1.0000      -0.167273        -4.5517 
   8   0.0000      -0.156806        -4.2669 
   9   0.0000      -0.001962        -0.0534 
  10   0.0000       0.020078         0.5464 
  11   0.0000       0.022756         0.6192 
  12   0.0000       0.024838         0.6759 
  13   0.0000       0.056367         1.5338 
  14   0.0000       0.058477         1.5912 
  15   0.0000       0.061167         1.6644 
  16   0.0000       0.100476         2.7341 
  17   0.0000       0.112114         3.0508 
  18   0.0000       0.116704         3.1757 
  19   0.0000       0.119009         3.2384 
  20   0.0000       0.130233         3.5438 
  21   0.0000       0.131339         3.5739 
  22   0.0000       0.169847         4.6218 
  23   0.0000       0.181149         4.9293 
  24   0.0000       0.184916         5.0318 
  25   0.0000       0.186199         5.0667 
  26   0.0000       0.194972         5.3055 
  27   0.0000       0.195929         5.3315 
  28   0.0000       0.197399         5.3715 
  29   0.0000       0.198584         5.4037 
  30   0.0000       0.263471         7.1694 
  31   0.0000       0.286425         7.7940 
  32   0.0000       0.286756         7.8030 
  33   0.0000       0.307921         8.3790 
  34   0.0000       0.312486         8.5032 
  35   0.0000       0.326877         8.8948 
  36   0.0000       0.352892         9.6027 
  37   0.0000       0.354072         9.6348 
  38   0.0000       0.357273         9.7219 
  39   0.0000       0.364286         9.9127 
  40   0.0000       0.368681        10.0323 
  41   0.0000       0.370638        10.0856 
  42   0.0000       0.381992        10.3945 
  43   0.0000       0.382196        10.4001 
  44   0.0000       0.412634        11.2284 
  45   0.0000       0.414037        11.2665 
  46   0.0000       0.424060        11.5393 
  47   0.0000       0.426931        11.6174 
  48   0.0000       0.468781        12.7562 
  49   0.0000       0.480916        13.0864 
  50   0.0000       0.481585        13.1046 
  51   0.0000       0.490603        13.3500 
  52   0.0000       0.490719        13.3531 
  53   0.0000       0.492180        13.3929 
  54   0.0000       0.562296        15.3009 
  55   0.0000       0.562445        15.3049 
  56   0.0000       0.582860        15.8604 
  57   0.0000       0.586832        15.9685 
  58   0.0000       0.587921        15.9982 
  59   0.0000       0.622480        16.9385 
  60   0.0000       0.630123        17.1465 
  61   0.0000       0.631673        17.1887 
  62   0.0000       0.662217        18.0198 
  63   0.0000       0.662513        18.0279 
  64   0.0000       0.678593        18.4654 
  65   0.0000       0.678629        18.4664 
  66   0.0000       0.697338        18.9755 
  67   0.0000       0.703613        19.1463 
  68   0.0000       0.736083        20.0298 
  69   0.0000       0.742798        20.2126 
  70   0.0000       0.743027        20.2188 
  71   0.0000       0.775095        21.0914 
  72   0.0000       0.775833        21.1115 
  73   0.0000       0.784010        21.3340 
  74   0.0000       0.787038        21.4164 
  75   0.0000       0.804368        21.8880 
  76   0.0000       0.804391        21.8886 
  77   0.0000       0.835585        22.7374 
  78   0.0000       0.836045        22.7499 
  79   0.0000       0.837199        22.7813 
  80   0.0000       0.886526        24.1236 
  81   0.0000       0.894803        24.3488 
  82   0.0000       0.896214        24.3872 
  83   0.0000       0.897969        24.4350 
  84   0.0000       0.901082        24.5197 
  85   0.0000       0.902522        24.5589 
  86   0.0000       0.902760        24.5653 
  87   0.0000       0.914253        24.8781 
  88   0.0000       0.915360        24.9082 
  89   0.0000       0.937808        25.5190 
  90   0.0000       0.937913        25.5219 
  91   0.0000       0.946121        25.7453 
  92   0.0000       0.970780        26.4163 
  93   0.0000       0.970939        26.4206 
  94   0.0000       0.997268        27.1370 
  95   0.0000       0.997287        27.1376 
  96   0.0000       1.029326        28.0094 
  97   0.0000       1.030154        28.0319 
  98   0.0000       1.103129        30.0177 
  99   0.0000       1.103184        30.0192 
 100   0.0000       1.146623        31.2012 
 101   0.0000       1.148194        31.2439 
 102   0.0000       1.153167        31.3793 
 103   0.0000       1.175207        31.9790 
 104   0.0000       1.201637        32.6982 
 105   0.0000       1.202360        32.7179 
 106   0.0000       1.271070        34.5876 
 107   0.0000       1.329695        36.1828 
 108   0.0000       1.331429        36.2300 
 109   0.0000       1.451186        39.4888 
 110   0.0000       1.480020        40.2734 
 111   0.0000       1.483147        40.3585 
 112   0.0000       1.556804        42.3628 
 113   0.0000       1.559983        42.4493 
 114   0.0000       1.623849        44.1872 
 115   0.0000       1.662794        45.2469 
 116   0.0000       1.665785        45.3283 
 117   0.0000       1.808243        49.2048 
 118   0.0000       1.830329        49.8058 
 119   0.0000       1.831834        49.8467 
 120   0.0000       1.873282        50.9746 
 121   0.0000       1.873527        50.9813 
 122   0.0000       1.949687        53.0537 
 123   0.0000       1.950927        53.0874 
 124   0.0000       2.072386        56.3925 
 125   0.0000       2.110341        57.4253 
 126   0.0000       2.110538        57.4307 
 127   0.0000       2.138937        58.2034 
 128   0.0000       2.140795        58.2540 
 129   0.0000       2.307772        62.7977 
 130   0.0000       2.376910        64.6790 
 131   0.0000       2.377757        64.7021 
 132   0.0000       2.422049        65.9073 
 133   0.0000       2.422987        65.9328 
 134   0.0000       2.690906        73.2233 
 135   0.0000       2.886765        78.5529 
 136   0.0000       2.887183        78.5642 
 137   0.0000       2.890591        78.6570 
 138   0.0000       2.893997        78.7497 
 139   0.0000       2.927077        79.6498 
 140   0.0000       3.197246        87.0015 
 141   0.0000       3.199676        87.0676 
 142   0.0000       3.221233        87.6542 
 143   0.0000       3.403817        92.6226 
 144   0.0000       3.738745       101.7364 
 145   0.0000       3.745990       101.9336 
 146   0.0000       3.972771       108.1046 
 147   0.0000       4.031282       109.6967 
 148   0.0000       4.032861       109.7397 
 149   0.0000       4.103918       111.6733 
 150   0.0000       4.106145       111.7339 
 151   0.0000       4.244920       115.5101 
 152   0.0000       4.412850       120.0798 
 153   0.0000       4.413304       120.0921 
 154   0.0000       4.421552       120.3166 
 155   0.0000       4.423431       120.3677 
 156   0.0000       4.564179       124.1976 
 157   0.0000       4.564697       124.2117 
 158   0.0000       4.606394       125.3463 
 159   0.0000       4.883883       132.8972 
 160   0.0000       4.884265       132.9076 
 161   0.0000       4.912882       133.6863 
 162   0.0000       4.913005       133.6897 
 163   0.0000       4.951105       134.7264 
 164   0.0000       4.951207       134.7292 
 165   0.0000       5.199836       141.4947 
 166   0.0000       5.199972       141.4984 
 167   0.0000       5.258437       143.0893 
 168   0.0000       5.326949       144.9537 
 169   0.0000       5.328915       145.0071 
 170   0.0000       5.523238       150.2949 
 171   0.0000       5.867677       159.6676 
 172   0.0000       5.869252       159.7105 
 173   0.0000       5.894882       160.4079 
 174   0.0000       5.894904       160.4085 
 175   0.0000       6.087390       165.6463 
 176   0.0000       6.087821       165.6580 
 177   0.0000       6.467866       175.9996 
 178   0.0000       6.468003       176.0033 
 179   0.0000       6.546727       178.1455 
 180   0.0000       6.551307       178.2701 
 181   0.0000       6.668705       181.4647 
 182   0.0000       6.703037       182.3989 
 183   0.0000       6.709760       182.5818 
 184   0.0000       6.936089       188.7406 
 185   0.0000       7.149969       194.5605 
 186   0.0000       7.441317       202.4885 
 187   0.0000       7.442878       202.5310 
 188   0.0000       7.707329       209.7271 
 189   0.0000       7.708798       209.7671 
 190   0.0000       8.141512       221.5418 
 191   0.0000       8.370188       227.7644 
 192   0.0000       8.372863       227.8372 
 193   0.0000       8.910582       242.4693 
 194   0.0000       8.920217       242.7314 
 195   0.0000       9.027483       245.6503 
 196   0.0000       9.284019       252.6310 
 197   0.0000       9.286433       252.6967 
 198   0.0000       9.917646       269.8729 
 199   0.0000      10.156038       276.3598 
 200   0.0000      10.159109       276.4434 
 201   0.0000      10.504305       285.8367 
 202   0.0000      10.907726       296.8143 
 203   0.0000      10.912206       296.9362 
 204   0.0000      10.940776       297.7137 
 205   0.0000      10.941171       297.7244 
 206   0.0000      10.978693       298.7454 
 207   0.0000      10.981496       298.8217 
 208   0.0000      11.046691       300.5957 
 209   0.0000      11.046775       300.5980 
 210   0.0000      11.107730       302.2567 
 211   0.0000      11.109075       302.2933 
 212   0.0000      11.188936       304.4664 
 213   0.0000      11.190421       304.5068 
 214   0.0000      11.275841       306.8312 
 215   0.0000      11.275911       306.8331 
 216   0.0000      11.585517       315.2580 
 217   0.0000      11.656875       317.1997 
 218   0.0000      11.884781       323.4013 
 219   0.0000      11.888080       323.4911 
 220   0.0000      11.942339       324.9676 
 221   0.0000      11.942344       324.9677 
 222   0.0000      12.268009       333.8295 
 223   0.0000      12.268047       333.8305 
 224   0.0000      12.576327       342.2193 
 225   0.0000      12.576584       342.2263 
 226   0.0000      12.758409       347.1740 
 227   0.0000      12.760042       347.2184 
 228   0.0000      12.860734       349.9584 
 229   0.0000      13.122477       357.0808 
 230   0.0000      13.125340       357.1587 
 231   0.0000      13.157977       358.0468 
 232   0.0000      13.568606       369.2205 
 233   0.0000      13.568877       369.2279 
 234   0.0000      14.001002       380.9866 
 235   0.0000      14.006226       381.1288 
 236   0.0000      14.159852       385.3092 
 237   0.0000      14.160214       385.3190 
 238   0.0000      14.290533       388.8652 
 239   0.0000      14.291345       388.8873 
 240   0.0000      14.810484       403.0138 
 241   0.0000      14.814154       403.1136 
 242   0.0000      15.127923       411.6517 
 243   0.0000      15.462557       420.7576 
 244   0.0000      15.468863       420.9292 
 245   0.0000      15.905608       432.8136 
 246   0.0000      15.907771       432.8725 
 247   0.0000      15.989986       435.1096 
 248   0.0000      16.395627       446.1477 
 249   0.0000      16.414175       446.6524 
 250   0.0000      16.424178       446.9246 
 251   0.0000      16.688064       454.1053 
 252   0.0000      16.694275       454.2743 
 253   0.0000      16.871998       459.1104 
 254   0.0000      16.872005       459.1106 
 255   0.0000      17.136109       466.2972 
 256   0.0000      17.136275       466.3018 
 257   0.0000      17.887543       486.7448 
 258   0.0000      17.888937       486.7827 
 259   0.0000      18.614567       506.5281 
 260   0.0000      18.617130       506.5979 
 261   0.0000      18.647779       507.4319 
 262   0.0000      18.785458       511.1783 
 263   0.0000      18.791882       511.3531 
 264   0.0000      20.377654       554.5042 
 265   0.0000      22.882294       622.6589 
 266   0.0000      22.884870       622.7290 
 267   0.0000      23.786984       647.2767 
 268   0.0000      24.250511       659.8900 
 269   0.0000      24.259626       660.1380 
 270   0.0000      25.720566       699.8922 
 271   0.0000      26.091730       709.9921 
 272   0.0000      26.106625       710.3974 
 273   0.0000      28.650677       779.6245 
 274   0.0000      31.024261       844.2131 
 275   0.0000      31.775456       864.6541 
 276   0.0000      31.781618       864.8218 
 277   0.0000      34.190052       930.3586 
 278   0.0000      47.498629      1292.5034 
 279   0.0000      47.502167      1292.5997 
 280   0.0000      47.870075      1302.6110 
 281   0.0000      47.879677      1302.8722 
 282   0.0000      49.170267      1337.9910 
 283   0.0000      66.445535      1808.0749 
 284   0.0000      66.446915      1808.1125 
 285   0.0000      67.248900      1829.9356 
 286   0.0000      67.253535      1830.0617 
 287   0.0000      68.952305      1876.2876 
 288   0.0000     105.407862      2868.2937 
 289   0.0000     143.229663      3897.4773 

                 SPIN DOWN ORBITALS
  NO   OCC          E(Eh)            E(eV) 
   0   1.0000     -18.880972      -513.7774 
   1   1.0000     -14.105613      -383.8333 
   2   1.0000      -1.138075       -30.9686 
   3   1.0000      -0.595003       -16.1909 
   4   1.0000      -0.463799       -12.6206 
   5   1.0000      -0.426176       -11.5968 
   6   1.0000      -0.412270       -11.2184 
   7   0.0000      -0.142340        -3.8733 
   8   0.0000      -0.098282        -2.6744 
   9   0.0000       0.003895         0.1060 
  10   0.0000       0.025999         0.7075 
  11   0.0000       0.027489         0.7480 
  12   0.0000       0.030405         0.8274 
  13   0.0000       0.059791         1.6270 
  14   0.0000       0.063702         1.7334 
  15   0.0000       0.065099         1.7714 
  16   0.0000       0.104617         2.8468 
  17   0.0000       0.120127         3.2688 
  18   0.0000       0.121428         3.3042 
  19   0.0000       0.127002         3.4559 
  20   0.0000       0.138507         3.7690 
  21   0.0000       0.138700         3.7742 
  22   0.0000       0.174017         4.7353 
  23   0.0000       0.187733         5.1085 
  24   0.0000       0.190019         5.1707 
  25   0.0000       0.191876         5.2212 
  26   0.0000       0.201487         5.4827 
  27   0.0000       0.203102         5.5267 
  28   0.0000       0.203319         5.5326 
  29   0.0000       0.205794         5.5999 
  30   0.0000       0.270995         7.3742 
  31   0.0000       0.294868         8.0238 
  32   0.0000       0.294872         8.0239 
  33   0.0000       0.316793         8.6204 
  34   0.0000       0.322572         8.7776 
  35   0.0000       0.335145         9.1198 
  36   0.0000       0.360764         9.8169 
  37   0.0000       0.360894         9.8204 
  38   0.0000       0.365856         9.9555 
  39   0.0000       0.372319        10.1313 
  40   0.0000       0.376733        10.2514 
  41   0.0000       0.378858        10.3092 
  42   0.0000       0.387816        10.5530 
  43   0.0000       0.387819        10.5531 
  44   0.0000       0.424520        11.5518 
  45   0.0000       0.424860        11.5610 
  46   0.0000       0.429188        11.6788 
  47   0.0000       0.433390        11.7932 
  48   0.0000       0.475809        12.9474 
  49   0.0000       0.487328        13.2609 
  50   0.0000       0.487508        13.2658 
  51   0.0000       0.499022        13.5791 
  52   0.0000       0.499205        13.5840 
  53   0.0000       0.499207        13.5841 
  54   0.0000       0.564779        15.3684 
  55   0.0000       0.575136        15.6502 
  56   0.0000       0.589556        16.0426 
  57   0.0000       0.593309        16.1448 
  58   0.0000       0.594450        16.1758 
  59   0.0000       0.628837        17.1115 
  60   0.0000       0.638848        17.3839 
  61   0.0000       0.639140        17.3919 
  62   0.0000       0.670320        18.2403 
  63   0.0000       0.670324        18.2404 
  64   0.0000       0.683193        18.5906 
  65   0.0000       0.683193        18.5906 
  66   0.0000       0.709056        19.2944 
  67   0.0000       0.719755        19.5855 
  68   0.0000       0.742318        20.1995 
  69   0.0000       0.752238        20.4694 
  70   0.0000       0.752257        20.4700 
  71   0.0000       0.781112        21.2551 
  72   0.0000       0.781246        21.2588 
  73   0.0000       0.790198        21.5024 
  74   0.0000       0.796709        21.6795 
  75   0.0000       0.811799        22.0902 
  76   0.0000       0.811799        22.0902 
  77   0.0000       0.839234        22.8367 
  78   0.0000       0.845211        22.9994 
  79   0.0000       0.848752        23.0957 
  80   0.0000       0.892667        24.2907 
  81   0.0000       0.903885        24.5960 
  82   0.0000       0.905596        24.6425 
  83   0.0000       0.905844        24.6493 
  84   0.0000       0.908073        24.7099 
  85   0.0000       0.909075        24.7372 
  86   0.0000       0.910357        24.7721 
  87   0.0000       0.925750        25.1909 
  88   0.0000       0.925972        25.1970 
  89   0.0000       0.946953        25.7679 
  90   0.0000       0.946953        25.7679 
  91   0.0000       0.953407        25.9435 
  92   0.0000       0.977994        26.6126 
  93   0.0000       0.977998        26.6127 
  94   0.0000       1.002802        27.2876 
  95   0.0000       1.002802        27.2876 
  96   0.0000       1.037965        28.2445 
  97   0.0000       1.037996        28.2453 
  98   0.0000       1.111316        30.2404 
  99   0.0000       1.111316        30.2405 
 100   0.0000       1.150227        31.2993 
 101   0.0000       1.156627        31.4734 
 102   0.0000       1.159413        31.5492 
 103   0.0000       1.182704        32.1830 
 104   0.0000       1.204460        32.7750 
 105   0.0000       1.213796        33.0291 
 106   0.0000       1.277850        34.7721 
 107   0.0000       1.347297        36.6618 
 108   0.0000       1.347339        36.6630 
 109   0.0000       1.457776        39.6681 
 110   0.0000       1.486662        40.4541 
 111   0.0000       1.504001        40.9259 
 112   0.0000       1.566193        42.6183 
 113   0.0000       1.587501        43.1981 
 114   0.0000       1.635593        44.5068 
 115   0.0000       1.670616        45.4598 
 116   0.0000       1.690113        45.9903 
 117   0.0000       1.815036        49.3896 
 118   0.0000       1.845063        50.2067 
 119   0.0000       1.845151        50.2091 
 120   0.0000       1.891359        51.4665 
 121   0.0000       1.891367        51.4667 
 122   0.0000       1.965369        53.4804 
 123   0.0000       1.965785        53.4917 
 124   0.0000       2.086263        56.7701 
 125   0.0000       2.125110        57.8272 
 126   0.0000       2.125720        57.8438 
 127   0.0000       2.143349        58.3235 
 128   0.0000       2.163110        58.8612 
 129   0.0000       2.315332        63.0034 
 130   0.0000       2.379610        64.7525 
 131   0.0000       2.395538        65.1859 
 132   0.0000       2.434765        66.2533 
 133   0.0000       2.434990        66.2594 
 134   0.0000       2.704953        73.6055 
 135   0.0000       2.889540        78.6284 
 136   0.0000       2.909140        79.1617 
 137   0.0000       2.921772        79.5054 
 138   0.0000       2.929563        79.7175 
 139   0.0000       2.948619        80.2360 
 140   0.0000       3.204019        87.1858 
 141   0.0000       3.229906        87.8902 
 142   0.0000       3.237283        88.0910 
 143   0.0000       3.415952        92.9528 
 144   0.0000       3.757777       102.2543 
 145   0.0000       3.795299       103.2753 
 146   0.0000       3.986591       108.4807 
 147   0.0000       4.051364       110.2432 
 148   0.0000       4.051701       110.2524 
 149   0.0000       4.106018       111.7304 
 150   0.0000       4.127939       112.3269 
 151   0.0000       4.255006       115.7846 
 152   0.0000       4.418891       120.2441 
 153   0.0000       4.442699       120.8920 
 154   0.0000       4.443031       120.9010 
 155   0.0000       4.447845       121.0320 
 156   0.0000       4.600531       125.1868 
 157   0.0000       4.600594       125.1885 
 158   0.0000       4.621051       125.7452 
 159   0.0000       4.911328       133.6440 
 160   0.0000       4.911385       133.6456 
 161   0.0000       4.954885       134.8293 
 162   0.0000       4.955508       134.8462 
 163   0.0000       4.955509       134.8463 
 164   0.0000       4.983154       135.5985 
 165   0.0000       5.222591       142.1139 
 166   0.0000       5.222606       142.1143 
 167   0.0000       5.271127       143.4347 
 168   0.0000       5.350509       145.5948 
 169   0.0000       5.353195       145.6678 
 170   0.0000       5.537184       150.6744 
 171   0.0000       5.887958       160.2195 
 172   0.0000       5.888040       160.2217 
 173   0.0000       5.915422       160.9668 
 174   0.0000       5.915426       160.9669 
 175   0.0000       6.091418       165.7559 
 176   0.0000       6.119472       166.5193 
 177   0.0000       6.487450       176.5325 
 178   0.0000       6.487475       176.5332 
 179   0.0000       6.557367       178.4350 
 180   0.0000       6.591694       179.3691 
 181   0.0000       6.692033       182.0995 
 182   0.0000       6.765871       184.1087 
 183   0.0000       6.766241       184.1188 
 184   0.0000       6.952391       189.1842 
 185   0.0000       7.174359       195.2242 
 186   0.0000       7.445858       202.6121 
 187   0.0000       7.477001       203.4596 
 188   0.0000       7.726608       210.2517 
 189   0.0000       7.726714       210.2546 
 190   0.0000       8.153729       221.8743 
 191   0.0000       8.373508       227.8547 
 192   0.0000       8.399965       228.5747 
 193   0.0000       8.933486       243.0925 
 194   0.0000       8.979956       244.3570 
 195   0.0000       9.042724       246.0650 
 196   0.0000       9.318868       253.5793 
 197   0.0000       9.319008       253.5831 
 198   0.0000       9.940704       270.5003 
 199   0.0000      10.163295       276.5573 
 200   0.0000      10.193783       277.3869 
 201   0.0000      10.523809       286.3674 
 202   0.0000      10.916173       297.0442 
 203   0.0000      10.949265       297.9447 
 204   0.0000      10.964818       298.3679 
 205   0.0000      10.964897       298.3700 
 206   0.0000      11.007605       299.5321 
 207   0.0000      11.008119       299.5461 
 208   0.0000      11.081613       301.5460 
 209   0.0000      11.081617       301.5461 
 210   0.0000      11.115506       302.4683 
 211   0.0000      11.150808       303.4289 
 212   0.0000      11.261024       306.4280 
 213   0.0000      11.261215       306.4332 
 214   0.0000      11.338215       308.5285 
 215   0.0000      11.338217       308.5286 
 216   0.0000      11.602153       315.7106 
 217   0.0000      11.671127       317.5875 
 218   0.0000      11.918327       324.3142 
 219   0.0000      11.918540       324.3200 
 220   0.0000      11.969795       325.7147 
 221   0.0000      11.969795       325.7147 
 222   0.0000      12.293472       334.5224 
 223   0.0000      12.293473       334.5224 
 224   0.0000      12.612335       343.1991 
 225   0.0000      12.612370       343.2000 
 226   0.0000      12.781626       347.8057 
 227   0.0000      12.783252       347.8500 
 228   0.0000      12.882878       350.5609 
 229   0.0000      13.127410       357.2150 
 230   0.0000      13.155951       357.9916 
 231   0.0000      13.180042       358.6472 
 232   0.0000      13.594015       369.9120 
 233   0.0000      13.594039       369.9126 
 234   0.0000      14.010553       381.2465 
 235   0.0000      14.044423       382.1682 
 236   0.0000      14.234720       387.3464 
 237   0.0000      14.234764       387.3476 
 238   0.0000      14.340860       390.2346 
 239   0.0000      14.340955       390.2372 
 240   0.0000      14.846211       403.9859 
 241   0.0000      14.848574       404.0502 
 242   0.0000      15.153773       412.3551 
 243   0.0000      15.473891       421.0660 
 244   0.0000      15.513176       422.1350 
 245   0.0000      15.928354       433.4325 
 246   0.0000      15.932013       433.5321 
 247   0.0000      16.017322       435.8535 
 248   0.0000      16.414334       446.6567 
 249   0.0000      16.427509       447.0152 
 250   0.0000      16.464112       448.0113 
 251   0.0000      16.754766       455.9204 
 252   0.0000      16.755349       455.9362 
 253   0.0000      16.910541       460.1592 
 254   0.0000      16.910590       460.1605 
 255   0.0000      17.163517       467.0430 
 256   0.0000      17.163537       467.0436 
 257   0.0000      17.908205       487.3070 
 258   0.0000      17.908586       487.3174 
 259   0.0000      18.621284       506.7109 
 260   0.0000      18.652652       507.5645 
 261   0.0000      18.665083       507.9027 
 262   0.0000      18.794871       511.4344 
 263   0.0000      18.826157       512.2858 
 264   0.0000      20.391100       554.8700 
 265   0.0000      22.923232       623.7729 
 266   0.0000      22.923275       623.7740 
 267   0.0000      23.813093       647.9872 
 268   0.0000      24.261643       660.1929 
 269   0.0000      24.289241       660.9439 
 270   0.0000      25.732104       700.2061 
 271   0.0000      26.122217       710.8217 
 272   0.0000      26.161120       711.8803 
 273   0.0000      28.672791       780.2263 
 274   0.0000      31.038812       844.6090 
 275   0.0000      31.789240       865.0292 
 276   0.0000      31.817873       865.8084 
 277   0.0000      34.201475       930.6694 
 278   0.0000      47.547330      1293.8286 
 279   0.0000      47.547737      1293.8397 
 280   0.0000      47.885732      1303.0370 
 281   0.0000      47.914991      1303.8332 
 282   0.0000      49.190186      1338.5330 
 283   0.0000      66.473053      1808.8237 
 284   0.0000      66.473111      1808.8253 
 285   0.0000      67.255611      1830.1182 
 286   0.0000      67.276153      1830.6772 
 287   0.0000      68.963522      1876.5928 
 288   0.0000     105.423243      2868.7123 
 289   0.0000     143.239306      3897.7397 

                    ********************************
                    * MULLIKEN POPULATION ANALYSIS *
                    ********************************

--------------------------------------------
MULLIKEN ATOMIC CHARGES AND SPIN POPULATIONS
--------------------------------------------
   0 N :    0.072827    0.626723
   1 O :   -0.072827    0.373277
Sum of atomic charges         :   -0.0000000
Sum of atomic spin populations:    1.0000000

-----------------------------------------------------
MULLIKEN REDUCED ORBITAL CHARGES AND SPIN POPULATIONS
-----------------------------------------------------
CHARGE
  0 N s       :     3.878186  s :     3.878186
      pz      :     0.961498  p :     2.949943
      px      :     0.692984
      py      :     1.295462
      dz2     :     0.019964  d :     0.085536
      dxz     :     0.026961
      dyz     :     0.038352
      dx2y2   :     0.000259
      dxy     :     0.000000
      f0      :     0.002202  f :     0.012240
      f+1     :     0.003507
      f-1     :     0.006473
      f+2     :     0.000021
      f-2     :     0.000000
      f+3     :     0.000018
      f-3     :     0.000018
      g0      :     0.000460  g :     0.001159
      g+1     :     0.000492
      g-1     :     0.000203
      g+2     :     0.000002
      g-2     :    -0.000000
      g+3     :     0.000001
      g-3     :     0.000002
      g+4     :     0.000000
      g-4     :    -0.000000
      h0      :     0.000071  h :     0.000109
      h+1     :     0.000032
      h-1     :     0.000005
      h+2     :     0.000000
      h-2     :     0.000000
      h+3     :     0.000000
      h-3     :     0.000000
      h+4     :     0.000000
      h-4     :     0.000000
      h+5     :     0.000000
      h-5     :     0.000000
  1 O s       :     3.866902  s :     3.866902
      pz      :     1.252886  p :     4.121924
      px      :     1.253265
      py      :     1.615773
      dz2     :     0.015031  d :     0.072887
      dxz     :     0.019937
      dyz     :     0.037852
      dx2y2   :     0.000067
      dxy     :     0.000000
      f0      :     0.001946  f :     0.009772
      f+1     :     0.002505
      f-1     :     0.005282
      f+2     :     0.000014
      f-2     :    -0.000000
      f+3     :     0.000012
      f-3     :     0.000013
      g0      :     0.000437  g :     0.001174
      g+1     :     0.000266
      g-1     :     0.000464
      g+2     :     0.000004
      g-2     :    -0.000000
      g+3     :     0.000001
      g-3     :     0.000001
      g+4     :     0.000000
      g-4     :     0.000000
      h0      :     0.000055  h :     0.000169
      h+1     :     0.000018
      h-1     :     0.000094
      h+2     :     0.000001
      h-2     :    -0.000000
      h+3     :     0.000000
      h-3     :     0.000000
      h+4     :     0.000000
      h-4     :     0.000000
      h+5     :     0.000000
      h-5     :     0.000000

SPIN
  0 N s       :    -0.047872  s :    -0.047872
      pz      :    -0.007382  p :     0.665776
      px      :     0.013997
      py      :     0.659161
      dz2     :    -0.000254  d :     0.009805
      dxz     :    -0.000237
      dyz     :     0.010536
      dx2y2   :    -0.000241
      dxy     :    -0.000000
      f0      :    -0.000646  f :    -0.000312
      f+1     :    -0.000672
      f-1     :     0.001055
      f+2     :    -0.000015
      f-2     :     0.000000
      f+3     :    -0.000017
      f-3     :    -0.000016
      g0      :    -0.000116  g :    -0.000626
      g+1     :    -0.000064
      g-1     :    -0.000447
      g+2     :    -0.000000
      g-2     :    -0.000000
      g+3     :     0.000000
      g-3     :     0.000000
      g+4     :     0.000000
      g-4     :     0.000000
      h0      :    -0.000011  h :    -0.000047
      h+1     :     0.000000
      h-1     :    -0.000036
      h+2     :    -0.000000
      h-2     :     0.000000
      h+3     :    -0.000000
      h-3     :    -0.000000
      h+4     :     0.000000
      h-4     :     0.000000
      h+5     :     0.000000
      h-5     :     0.000000
  1 O s       :     0.022527  s :     0.022527
      pz      :     0.030226  p :     0.328305
      px      :    -0.012146
      py      :     0.310225
      dz2     :     0.003960  d :     0.019969
      dxz     :    -0.000740
      dyz     :     0.016810
      dx2y2   :    -0.000061
      dxy     :    -0.000000
      f0      :    -0.000009  f :     0.002079
      f+1     :    -0.000180
      f-1     :     0.002299
      f+2     :    -0.000009
      f-2     :    -0.000000
      f+3     :    -0.000011
      f-3     :    -0.000011
      g0      :    -0.000078  g :     0.000311
      g+1     :     0.000064
      g-1     :     0.000327
      g+2     :    -0.000002
      g-2     :     0.000000
      g+3     :    -0.000000
      g-3     :    -0.000001
      g+4     :     0.000000
      g-4     :    -0.000000
      h0      :    -0.000011  h :     0.000087
      h+1     :     0.000009
      h-1     :     0.000090
      h+2     :    -0.000001
      h-2     :     0.000000
      h+3     :    -0.000000
      h-3     :    -0.000001
      h+4     :     0.000000
      h-4     :    -0.000000
      h+5     :     0.000000
      h-5     :     0.000000


                     *******************************
                     * LOEWDIN POPULATION ANALYSIS *
                     *******************************

-------------------------------------------
LOEWDIN ATOMIC CHARGES AND SPIN POPULATIONS
-------------------------------------------
   0 N :   -0.071865    0.587219
   1 O :    0.071865    0.412781

----------------------------------------------------
LOEWDIN REDUCED ORBITAL CHARGES AND SPIN POPULATIONS
----------------------------------------------------
CHARGE
  0 N s       :     3.274352  s :     3.274352
      pz      :     1.274236  p :     3.025850
      px      :     0.666798
      py      :     1.084816
      dz2     :     0.230705  d :     0.511224
      dxz     :     0.095688
      dyz     :     0.184595
      dx2y2   :     0.000235
      dxy     :     0.000000
      f0      :     0.070467  f :     0.201134
      f+1     :     0.046605
      f-1     :     0.083999
      f+2     :     0.000026
      f-2     :     0.000000
      f+3     :     0.000018
      f-3     :     0.000018
      g0      :     0.015058  g :     0.048364
      g+1     :     0.013022
      g-1     :     0.020280
      g+2     :     0.000002
      g-2     :     0.000000
      g+3     :     0.000001
      g-3     :     0.000001
      g+4     :     0.000000
      g-4     :     0.000000
      h0      :     0.003964  h :     0.010941
      h+1     :     0.002846
      h-1     :     0.004129
      h+2     :     0.000001
      h-2     :     0.000000
      h+3     :     0.000000
      h-3     :     0.000000
      h+4     :     0.000000
      h-4     :     0.000000
      h+5     :     0.000000
      h-5     :     0.000000
  1 O s       :     3.351505  s :     3.351505
      pz      :     1.513216  p :     3.989255
      px      :     1.099457
      py      :     1.376582
      dz2     :     0.197431  d :     0.408456
      dxz     :     0.047108
      dyz     :     0.163847
      dx2y2   :     0.000069
      dxy     :     0.000000
      f0      :     0.052617  f :     0.138300
      f+1     :     0.021222
      f-1     :     0.064414
      f+2     :     0.000022
      f-2     :     0.000000
      f+3     :     0.000012
      f-3     :     0.000013
      g0      :     0.012678  g :     0.032197
      g+1     :     0.005669
      g-1     :     0.013840
      g+2     :     0.000008
      g-2     :     0.000000
      g+3     :     0.000001
      g-3     :     0.000001
      g+4     :     0.000000
      g-4     :     0.000000
      h0      :     0.003409  h :     0.008423
      h+1     :     0.001550
      h-1     :     0.003458
      h+2     :     0.000004
      h-2     :     0.000000
      h+3     :     0.000000
      h-3     :     0.000000
      h+4     :     0.000000
      h-4     :     0.000000
      h+5     :     0.000000
      h-5     :     0.000000

SPIN
  0 N s       :     0.004103  s :     0.004103
      pz      :    -0.003686  p :     0.463381
      px      :     0.010083
      py      :     0.456983
      dz2     :     0.001323  d :     0.079238
      dxz     :    -0.002166
      dyz     :     0.080297
      dx2y2   :    -0.000216
      dxy     :    -0.000000
      f0      :     0.000049  f :     0.032459
      f+1     :    -0.001084
      f-1     :     0.033547
      f+2     :    -0.000018
      f-2     :    -0.000000
      f+3     :    -0.000018
      f-3     :    -0.000017
      g0      :     0.000025  g :     0.006842
      g+1     :    -0.000075
      g-1     :     0.006893
      g+2     :    -0.000001
      g-2     :    -0.000000
      g+3     :     0.000000
      g-3     :     0.000000
      g+4     :     0.000000
      g-4     :    -0.000000
      h0      :    -0.000027  h :     0.001197
      h+1     :    -0.000006
      h-1     :     0.001230
      h+2     :    -0.000001
      h-2     :     0.000000
      h+3     :    -0.000000
      h-3     :    -0.000000
      h+4     :     0.000000
      h-4     :     0.000000
      h+5     :     0.000000
      h-5     :     0.000000
  1 O s       :     0.001324  s :     0.001324
      pz      :    -0.004622  p :     0.230952
      px      :    -0.008254
      py      :     0.243827
      dz2     :     0.001829  d :     0.123123
      dxz     :     0.000718
      dyz     :     0.120640
      dx2y2   :    -0.000064
      dxy     :    -0.000000
      f0      :     0.000297  f :     0.046472
      f+1     :     0.000580
      f-1     :     0.045634
      f+2     :    -0.000017
      f-2     :    -0.000000
      f+3     :    -0.000011
      f-3     :    -0.000011
      g0      :    -0.000164  g :     0.008923
      g+1     :     0.000195
      g-1     :     0.008899
      g+2     :    -0.000006
      g-2     :     0.000000
      g+3     :    -0.000000
      g-3     :    -0.000000
      g+4     :     0.000000
      g-4     :    -0.000000
      h0      :    -0.000116  h :     0.001988
      h+1     :     0.000037
      h-1     :     0.002071
      h+2     :    -0.000003
      h-2     :     0.000000
      h+3     :    -0.000000
      h-3     :    -0.000000
      h+4     :     0.000000
      h-4     :    -0.000000
      h+5     :     0.000000
      h-5     :     0.000000


                      *****************************
                      * MAYER POPULATION ANALYSIS *
                      *****************************

  NA   - Mulliken gross atomic population
  ZA   - Total nuclear charge
  QA   - Mulliken gross atomic charge
  VA   - Mayer's total valence
  BVA  - Mayer's bonded valence
  FA   - Mayer's free valence

  ATOM       NA         ZA         QA         VA         BVA        FA
  0 N      6.9272     7.0000     0.0728     2.6515     2.1863     0.4652
  1 O      8.0728     8.0000    -0.0728     2.3140     2.1863     0.1277

  Mayer bond orders larger than 0.1
B(  0-N ,  1-O ) :   2.1863 

-------
TIMINGS
-------

Total SCF time: 0 days 0 hours 4 min 24 sec 

Total time                  ....     264.603 sec
Sum of individual times     ....     263.951 sec  ( 99.8%)

Fock matrix formation       ....     262.338 sec  ( 99.1%)
  XC integration            ....       5.886 sec  (  2.2% of F)
    Basis function eval.    ....       0.398 sec  (  6.8% of XC)
    Density eval.           ....       1.105 sec  ( 18.8% of XC)
    XC-Functional eval.     ....       0.091 sec  (  1.5% of XC)
    XC-Potential eval.      ....       3.893 sec  ( 66.1% of XC)
Diagonalization             ....       0.546 sec  (  0.2%)
Density matrix formation    ....       0.010 sec  (  0.0%)
Population analysis         ....       0.112 sec  (  0.0%)
Initial guess               ....       0.368 sec  (  0.1%)
Orbital Transformation      ....       0.000 sec  (  0.0%)
Orbital Orthonormalization  ....       0.000 sec  (  0.0%)
DIIS solution               ....       0.333 sec  (  0.1%)
Grid generation             ....       0.244 sec  (  0.1%)

-------------------------   --------------------
FINAL SINGLE POINT ENERGY      -129.825626872438
-------------------------   --------------------


                            ***************************************
                            *     ORCA property calculations      *
                            ***************************************

                                    ---------------------
                                    Active property flags
                                    ---------------------
   (+) Dipole Moment


------------------------------------------------------------------------------
                       ORCA ELECTRIC PROPERTIES CALCULATION
------------------------------------------------------------------------------

Dipole Moment Calculation                       ... on
Quadrupole Moment Calculation                   ... off
Polarizability Calculation                      ... off
GBWName                                         ... no_pbe_+0001_y.gbw
Electron density file                           ... no_pbe_+0001_y.scfp.tmp
The origin for moment calculation is the CENTER OF MASS  = ( 0.000000,  0.000000  1.162557)

-------------
DIPOLE MOMENT
-------------
                                X             Y             Z
Electronic contribution:     -0.00000       0.01133       0.08565
Nuclear contribution   :      0.00000       0.00000       0.00458
                        -----------------------------------------
Total Dipole Moment    :     -0.00000       0.01133       0.09023
                        -----------------------------------------
Magnitude (a.u.)       :      0.09094
Magnitude (Debye)      :      0.23115



--------------------
Rotational spectrum 
--------------------
 
Rotational constants in cm-1:     0.000000     1.695532     1.695532 
Rotational constants in MHz :     0.000000 50830.768128 50830.768128 

 Dipole components along the rotational axes: 
x,y,z [a.u.] :     0.090231     0.011328    -0.000000 
x,y,z [Debye]:     0.229348     0.028793    -0.000000 

 

Timings for individual modules:

Sum of individual times         ...      278.743 sec (=   4.646 min)
GTO integral calculation        ...        7.801 sec (=   0.130 min)   2.8 %
SCF iterations                  ...      270.942 sec (=   4.516 min)  97.2 %
                             ****ORCA TERMINATED NORMALLY****
TOTAL RUN TIME: 0 days 0 hours 4 minutes 44 seconds 361 msec
