
                                 *****************
                                 * O   R   C   A *
                                 *****************

           --- An Ab Initio, DFT and Semiempirical electronic structure package ---

                  #######################################################
                  #                        -***-                        #
                  #          Department of theory and spectroscopy      #
                  #               Directorship: Frank Neese             #
                  #        Max Planck Institute fuer Kohlenforschung    #
                  #                Kaiser Wilhelm Platz 1               #
                  #                 D-45470 Muelheim/Ruhr               #
                  #                      Germany                        #
                  #                                                     #
                  #                  All rights reserved                #
                  #                        -***-                        #
                  #######################################################


                         Program Version 4.1.2  - RELEASE  -


 With contributions from (in alphabetic order):
   Daniel Aravena         : Magnetic Properties
   Michael Atanasov       : Ab Initio Ligand Field Theory
   Alexander A. Auer      : GIAO ZORA
   Ute Becker             : Parallelization
   Giovanni Bistoni       : ED, Open-shell LED
   Martin Brehm           : Molecular dynamics
   Dmytro Bykov           : SCF Hessian
   Vijay G. Chilkuri      : MRCI spin determinant printing
   Dipayan Datta          : RHF DLPNO-CCSD density
   Achintya Kumar Dutta   : EOM-CC, STEOM-CC
   Dmitry Ganyushin       : Spin-Orbit,Spin-Spin,Magnetic field MRCI
   Miquel Garcia          : C-PCM Hessian
   Yang Guo               : DLPNO-NEVPT2, CIM, IAO-localization
   Andreas Hansen         : Spin unrestricted coupled pair/coupled cluster methods
   Benjamin Helmich-Paris : CASSCF linear response (MC-RPA)
   Lee Huntington         : MR-EOM, pCC
   Robert Izsak           : Overlap fitted RIJCOSX, COSX-SCS-MP3, EOM
   Christian Kollmar      : KDIIS, OOCD, Brueckner-CCSD(T), CCSD density
   Simone Kossmann        : Meta GGA functionals, TD-DFT gradient, OOMP2, MP2 Hessian
   Martin Krupicka        : AUTO-CI
   Lucas Lang             : DCDCAS
   Dagmar Lenk            : GEPOL surface, SMD
   Dimitrios Liakos       : Extrapolation schemes; parallel MDCI
   Dimitrios Manganas     : ROCIS; embedding schemes
   Dimitrios Pantazis     : SARC Basis sets
   Taras Petrenko         : DFT Hessian,TD-DFT gradient, ASA, ECA, R-Raman, ABS, FL, XAS/XES, NRVS
   Peter Pinski           : DLPNO-MP2, DLPNO-MP2 Gradient
   Christoph Reimann      : Effective Core Potentials
   Marius Retegan         : Local ZFS, SOC
   Christoph Riplinger    : Optimizer, TS searches, QM/MM, DLPNO-CCSD(T), (RO)-DLPNO pert. Triples
   Tobias Risthaus        : Range-separated hybrids, TD-DFT gradient, RPA, STAB
   Michael Roemelt        : Restricted open shell CIS
   Masaaki Saitow         : Open-shell DLPNO
   Barbara Sandhoefer     : DKH picture change effects
   Avijit Sen             : IP-ROCIS
   Kantharuban Sivalingam : CASSCF convergence, NEVPT2, FIC-MRCI
   Bernardo de Souza      : ESD, SOC TD-DFT
   Georgi Stoychev        : AutoAux, RI-MP2 NMR
   Willem Van den Heuvel  : Paramagnetic NMR
   Boris Wezisla          : Elementary symmetry handling
   Frank Wennmohs         : Technical directorship


 We gratefully acknowledge several colleagues who have allowed us to
 interface, adapt or use parts of their codes:
   Stefan Grimme, W. Hujo, H. Kruse,             : VdW corrections, initial TS optimization,
                  C. Bannwarth                     DFT functionals, gCP, sTDA/sTD-DF
   Ed Valeev                                     : LibInt (2-el integral package), F12 methods
   Garnet Chan, S. Sharma, J. Yang, R. Olivares  : DMRG
   Ulf Ekstrom                                   : XCFun DFT Library
   Mihaly Kallay                                 : mrcc  (arbitrary order and MRCC methods)
   Andreas Klamt, Michael Diedenhofen            : otool_cosmo (COSMO solvation model)
   Jiri Pittner, Ondrej Demel                    : Mk-CCSD
   Frank Weinhold                                : gennbo (NPA and NBO analysis)
   Christopher J. Cramer and Donald G. Truhlar   : smd solvation model
   Lars Goerigk                                  : TD-DFT with DH, B97 family of functionals
   V. Asgeirsson, H. Jonsson                     : NEB implementation
   FAccTs GmbH                                   : IRC, NEB, NEB-TS, Multilevel


 Your calculation uses the libint2 library for the computation of 2-el integrals
 For citations please refer to: http://libint.valeyev.net

 This ORCA versions uses:
   CBLAS   interface :  Fast vector & matrix operations
   LAPACKE interface :  Fast linear algebra routines
   SCALAPACK package :  Parallel linear algebra routines


----- Orbital basis set information -----
Your calculation utilizes the basis: aug-pc-4
   H, C-F              : F. Jensen, J. Chem. Phys. 115, 9113 (2001).
                         F. Jensen, J. Chem. Phys. 116, 7372 (2002).
                         F. Jensen, J. Chem. Phys. 117, 9234 (2002).
   Si-Cl               : F. Jensen, T. Helgaker, J. Chem. Phys. 121, 3463 (2004).
   He-B, Ne-Mg, Al, Ar : F. Jensen, J. Phys. Chem. A 111, 11198 (2007).
   K, Ca, Ga-Kr        : F. Jensen, J. Chem. Phys. 136, 094110 (2012).
   Sc-Zn               : F. Jensen, J. Chem. Phys. 138, 014107 (2013).

================================================================================
                                        WARNINGS
                       Please study these warnings very carefully!
================================================================================


INFO   : the flag for use of LIBINT has been found!

================================================================================
                                       INPUT FILE
================================================================================
NAME = ocl_pbe_+0001_z.inp
|  1> !uks pbe nori aug-pc-4 grid5 nofinalgrid verytightscf
|  2> 
|  3> %maxcore 6000
|  4> 
|  5> %pal nprocs 4 end
|  6> 
|  7> %scf
|  8> 	efield 0.0, 0.0, 0.001
|  9> 	maxiter 200
| 10> end
| 11> 
| 12> * xyz 0 2
| 13> O 0.0000 0.0000 0.0000
| 14> Cl 0.0000 0.0000 1.5696
| 15> *
| 16> 
| 17>                          ****END OF INPUT****
================================================================================

                       ****************************
                       * Single Point Calculation *
                       ****************************

---------------------------------
CARTESIAN COORDINATES (ANGSTROEM)
---------------------------------
  O      0.000000    0.000000    0.000000
  Cl     0.000000    0.000000    1.569600

----------------------------
CARTESIAN COORDINATES (A.U.)
----------------------------
  NO LB      ZA    FRAG     MASS         X           Y           Z
   0 O     8.0000    0    15.999    0.000000    0.000000    0.000000
   1 Cl   17.0000    0    35.453    0.000000    0.000000    2.966114

--------------------------------
INTERNAL COORDINATES (ANGSTROEM)
--------------------------------
 O      0   0   0     0.000000000000     0.00000000     0.00000000
 Cl     1   0   0     1.569600000000     0.00000000     0.00000000

---------------------------
INTERNAL COORDINATES (A.U.)
---------------------------
 O      0   0   0     0.000000000000     0.00000000     0.00000000
 Cl     1   0   0     2.966114139803     0.00000000     0.00000000

---------------------
BASIS SET INFORMATION
---------------------
There are 2 groups of distinct atoms

 Group   1 Type O   : 27s12p7d4f3g2h contracted to 9s8p7d4f3g2h pattern {1191111111/51111111/1111111/1111/111/11}
 Group   2 Type Cl  : 44s27p7d4f3g2h contracted to 8s7p7d4f3g2h pattern {15121211111/111111111/1111111/1111/111/11}

Atom   0O    basis set group =>   1
Atom   1Cl   basis set group =>   2


           ************************************************************
           *        Program running with 4 parallel MPI-processes     *
           *              working on a common directory               *
           ************************************************************
------------------------------------------------------------------------------
                           ORCA GTO INTEGRAL CALCULATION
------------------------------------------------------------------------------

                         BASIS SET STATISTICS AND STARTUP INFO

 # of primitive gaussian shells          ...  142
 # of primitive gaussian functions       ...  412
 # of contracted shells                  ...   64
 # of contracted basis functions         ...  286
 Highest angular momentum                ...    5
 Maximum contraction depth               ...   15
 Integral package used                   ... LIBINT
 Integral threshhold            Thresh   ...  1.000e-12
 Primitive cut-off              TCut     ...  1.000e-14


------------------------------ INTEGRAL EVALUATION ----------------------------


 * One electron integrals 
 Pre-screening matrix                    ... done
 Shell pair data                         ... done (   0.001 sec)


An Electric Field will be added: 0.000e+00 0.000e+00 1.000e-03 au

  ... done adding electric field perturbation



           ************************************************************
           *        Program running with 4 parallel MPI-processes     *
           *              working on a common directory               *
           ************************************************************
-------------------------------------------------------------------------------
                                 ORCA SCF
-------------------------------------------------------------------------------

------------
SCF SETTINGS
------------
Hamiltonian:
 Density Functional     Method          .... DFT(GTOs)
 Exchange Functional    Exchange        .... PBE
   PBE kappa parameter   XKappa         ....  0.804000
   PBE mue parameter    XMuePBE         ....  0.219520
 Correlation Functional Correlation     .... PBE
   PBE beta parameter  CBetaPBE         ....  0.066725
 LDA part of GGA corr.  LDAOpt          .... PW91-LDA
 Gradients option       PostSCFGGA      .... off
   Density functional embedding theory  .... OFF
   NL short-range parameter             ....  6.400000


General Settings:
 Integral files         IntName         .... ocl_pbe_+0001_z
 Hartree-Fock type      HFTyp           .... UHF
 Total Charge           Charge          ....    0
 Multiplicity           Mult            ....    2
 Number of Electrons    NEL             ....   25
 Basis Dimension        Dim             ....  286
 Nuclear Repulsion      ENuc            ....     45.8512361932 Eh

Convergence Acceleration:
 DIIS                   CNVDIIS         .... on
   Start iteration      DIISMaxIt       ....    12
   Startup error        DIISStart       ....  0.200000
   # of expansion vecs  DIISMaxEq       ....     5
   Bias factor          DIISBfac        ....   1.050
   Max. coefficient     DIISMaxC        ....  10.000
 Newton-Raphson         CNVNR           .... off
 SOSCF                  CNVSOSCF        .... off
 Level Shifting         CNVShift        .... on
   Level shift para.    LevelShift      ....    0.2500
   Turn off err/grad.   ShiftErr        ....    0.0010
 Zerner damping         CNVZerner       .... off
 Static damping         CNVDamp         .... on
   Fraction old density DampFac         ....    0.7000
   Max. Damping (<1)    DampMax         ....    0.9800
   Min. Damping (>=0)   DampMin         ....    0.0000
   Turn off err/grad.   DampErr         ....    0.1000
 Fernandez-Rico         CNVRico         .... off

SCF Procedure:
 Maximum # iterations   MaxIter         ....   200
 SCF integral mode      SCFMode         .... Direct
   Integral package                     .... LIBINT
 Reset frequency        DirectResetFreq ....    20
 Integral Threshold     Thresh          ....  1.000e-12 Eh
 Primitive CutOff       TCut            ....  1.000e-14 Eh

Convergence Tolerance:
 Convergence Check Mode ConvCheckMode   .... Total+1el-Energy
 Convergence forced     ConvForced      .... 0
 Energy Change          TolE            ....  1.000e-09 Eh
 1-El. energy change                    ....  1.000e-06 Eh
 DIIS Error             TolErr          ....  1.000e-08


Diagonalization of the overlap matrix:
Smallest eigenvalue                        ... 6.708e-06
Time for diagonalization                   ...    0.015 sec
Threshold for overlap eigenvalues          ... 1.000e-08
Number of eigenvalues below threshold      ... 0
Time for construction of square roots      ...    0.011 sec
Total time needed                          ...    0.027 sec

-------------------
DFT GRID GENERATION
-------------------

General Integration Accuracy     IntAcc      ...  5.010
Radial Grid Type                 RadialGrid  ... Gauss-Chebyshev
Angular Grid (max. acc.)         AngularGrid ... Lebedev-434
Angular grid pruning method      GridPruning ... 3 (G Style)
Weight generation scheme         WeightScheme... Becke
Basis function cutoff            BFCut       ...    1.0000e-12
Integration weight cutoff        WCut        ...    1.0000e-14
Grids for H and He will be reduced by one unit

# of grid points (after initial pruning)     ...  22726 (   0.0 sec)
# of grid points (after weights+screening)   ...  22659 (   0.0 sec)
nearest neighbour list constructed           ...    0.0 sec
Grid point re-assignment to atoms done       ...    0.0 sec
Grid point division into batches done        ...    0.2 sec
Reduced shell lists constructed in    0.2 sec

Total number of grid points                  ...    22659
Total number of batches                      ...      355
Average number of points per batch           ...       63
Average number of grid points per atom       ...    11330
Average number of shells per batch           ...    39.12 (61.13%)
Average number of basis functions per batch  ...   183.68 (64.22%)
Average number of large shells per batch     ...    33.42 (85.43%)
Average number of large basis fcns per batch ...   157.80 (85.91%)
Maximum spatial batch extension              ...  16.29, 16.29, 13.53 au
Average spatial batch extension              ...   1.43,  1.42,  1.23 au

Time for grid setup =    0.266 sec

------------------------------
INITIAL GUESS: MODEL POTENTIAL
------------------------------
Loading Hartree-Fock densities                     ... done
Calculating cut-offs                               ... done
Setting up the integral package                    ... done
Initializing the effective Hamiltonian             ... done
Starting the Coulomb interaction                   ... done (   0.0 sec)
Reading the grid                                   ... done
Mapping shells                                     ... done
Starting the XC term evaluation                    ... done (   0.2 sec)
  promolecular density results
     # of electrons  =     25.000002806
     EX              =    -35.481709167
     EC              =     -0.931028800
     EX+EC           =    -36.412737968
Transforming the Hamiltonian                       ... done (   0.0 sec)
Diagonalizing the Hamiltonian                      ... done (   0.0 sec)
Back transforming the eigenvectors                 ... done (   0.0 sec)
Now organizing SCF variables                       ... done
                      ------------------
                      INITIAL GUESS DONE (   0.6 sec)
                      ------------------
--------------
SCF ITERATIONS
--------------
ITER       Energy         Delta-E        Max-DP      RMS-DP      [F,P]     Damp
               ***  Starting incremental Fock matrix formation  ***
  0   -535.0136151360   0.000000000000 0.02257403  0.00029511  0.3089007 0.7000
  1   -535.0744505626  -0.060835426582 0.01369284  0.00013614  0.0419907 0.7000
                               ***Turning on DIIS***
  2   -535.0807733428  -0.006322780133 0.02769429  0.00022186  0.0644057 0.0000
  3   -535.1190777692  -0.038304426455 0.00504420  0.00010034  0.0285182 0.0000
  4   -535.1198995098  -0.000821740593 0.00461688  0.00003711  0.0228736 0.0000
  5   -535.1203992913  -0.000499781497 0.00096093  0.00001357  0.0027325 0.0000
  6   -535.1204305826  -0.000031291278 0.00036377  0.00000483  0.0010601 0.0000
  7   -535.1204370544  -0.000006471814 0.00043323  0.00000405  0.0005700 0.0000
  8   -535.1204395458  -0.000002491438 0.00011598  0.00000130  0.0005534 0.0000
  9   -535.1204399177  -0.000000371848 0.00005022  0.00000047  0.0001871 0.0000
 10   -535.1204399764  -0.000000058667 0.00000826  0.00000011  0.0000411 0.0000
 11   -535.1204399790  -0.000000002670 0.00000574  0.00000005  0.0000141 0.0000
 12   -535.1204399794  -0.000000000409 0.00000103  0.00000001  0.0000053 0.0000
 13   -535.1204399795  -0.000000000043 0.00000196  0.00000001  0.0000010 0.0000
 14   -535.1204399795  -0.000000000004 0.00000191  0.00000001  0.0000002 0.0000
                 **** Energy Check signals convergence ****

               *****************************************************
               *                     SUCCESS                       *
               *           SCF CONVERGED AFTER  15 CYCLES          *
               *****************************************************


----------------
TOTAL SCF ENERGY
----------------

Total Energy       :         -535.12043998 Eh          -14561.36746 eV

Components:
Nuclear Repulsion  :           45.85123619 Eh            1247.67557 eV
Electronic Energy  :         -580.97167617 Eh          -15809.04302 eV
One Electron Energy:         -829.24891118 Eh          -22565.01006 eV
Two Electron Energy:          248.27723501 Eh            6755.96703 eV

Virial components:
Potential Energy   :        -1069.63002694 Eh          -29106.11276 eV
Kinetic Energy     :          534.50958696 Eh           14544.74530 eV
Virial Ratio       :            2.00114283


DFT components:
N(Alpha)           :       13.000001262526 electrons
N(Beta)            :       12.000001325888 electrons
N(Total)           :       25.000002588413 electrons
E(X)               :      -35.557629855929 Eh       
E(C)               :       -0.926062515658 Eh       
E(XC)              :      -36.483692371588 Eh       
DFET-embed. en.    :        0.000000000000 Eh       

---------------
SCF CONVERGENCE
---------------

  Last Energy change         ...   -9.0949e-13  Tolerance :   1.0000e-09
  Last MAX-Density change    ...    3.8461e-06  Tolerance :   1.0000e-08
  Last RMS-Density change    ...    2.2626e-08  Tolerance :   1.0000e-09
  Last DIIS Error            ...    5.4610e-08  Tolerance :   1.0000e-08

             **** THE GBW FILE WAS UPDATED (ocl_pbe_+0001_z.gbw) ****
             **** DENSITY FILE WAS UPDATED (ocl_pbe_+0001_z.scfp.tmp) ****
             **** ENERGY FILE WAS UPDATED (ocl_pbe_+0001_z.en.tmp) ****
----------------------
UHF SPIN CONTAMINATION
----------------------

Warning: in a DFT calculation there is little theoretical justification to 
         calculate <S**2> as in Hartree-Fock theory. We will do it anyways
         but you should keep in mind that the values have only limited relevance

Expectation value of <S**2>     :     0.752878
Ideal value S*(S+1) for S=0.5   :     0.750000
Deviation                       :     0.002878

----------------
ORBITAL ENERGIES
----------------
                 SPIN UP ORBITALS
  NO   OCC          E(Eh)            E(eV) 
   0   1.0000    -100.747812     -2741.4873 
   1   1.0000     -18.840548      -512.6774 
   2   1.0000      -9.265183      -252.1184 
   3   1.0000      -7.089059      -192.9031 
   4   1.0000      -7.083277      -192.7458 
   5   1.0000      -7.074006      -192.4935 
   6   1.0000      -1.011322       -27.5195 
   7   1.0000      -0.723606       -19.6903 
   8   1.0000      -0.449683       -12.2365 
   9   1.0000      -0.430315       -11.7095 
  10   1.0000      -0.397147       -10.8069 
  11   1.0000      -0.282442        -7.6856 
  12   1.0000      -0.243230        -6.6186 
  13   0.0000      -0.093504        -2.5444 
  14   0.0000      -0.004103        -0.1116 
  15   0.0000       0.022411         0.6098 
  16   0.0000       0.024248         0.6598 
  17   0.0000       0.024465         0.6657 
  18   0.0000       0.053903         1.4668 
  19   0.0000       0.055355         1.5063 
  20   0.0000       0.056387         1.5344 
  21   0.0000       0.097630         2.6566 
  22   0.0000       0.097722         2.6591 
  23   0.0000       0.108861         2.9622 
  24   0.0000       0.121049         3.2939 
  25   0.0000       0.124434         3.3860 
  26   0.0000       0.153368         4.1734 
  27   0.0000       0.157001         4.2722 
  28   0.0000       0.162561         4.4235 
  29   0.0000       0.173410         4.7187 
  30   0.0000       0.179253         4.8777 
  31   0.0000       0.180982         4.9248 
  32   0.0000       0.185117         5.0373 
  33   0.0000       0.190955         5.1961 
  34   0.0000       0.191096         5.2000 
  35   0.0000       0.263728         7.1764 
  36   0.0000       0.276414         7.5216 
  37   0.0000       0.276423         7.5219 
  38   0.0000       0.277993         7.5646 
  39   0.0000       0.278074         7.5668 
  40   0.0000       0.283364         7.7107 
  41   0.0000       0.286710         7.8018 
  42   0.0000       0.301955         8.2166 
  43   0.0000       0.312421         8.5014 
  44   0.0000       0.340180         9.2568 
  45   0.0000       0.363339         9.8870 
  46   0.0000       0.363484         9.8909 
  47   0.0000       0.376454        10.2438 
  48   0.0000       0.376456        10.2439 
  49   0.0000       0.397534        10.8174 
  50   0.0000       0.397696        10.8219 
  51   0.0000       0.402944        10.9647 
  52   0.0000       0.443333        12.0637 
  53   0.0000       0.458241        12.4694 
  54   0.0000       0.478365        13.0170 
  55   0.0000       0.482826        13.1384 
  56   0.0000       0.482973        13.1424 
  57   0.0000       0.483104        13.1459 
  58   0.0000       0.503728        13.7071 
  59   0.0000       0.503728        13.7071 
  60   0.0000       0.534299        14.5390 
  61   0.0000       0.547133        14.8882 
  62   0.0000       0.547587        14.9006 
  63   0.0000       0.562108        15.2957 
  64   0.0000       0.569222        15.4893 
  65   0.0000       0.591278        16.0895 
  66   0.0000       0.602814        16.4034 
  67   0.0000       0.602845        16.4042 
  68   0.0000       0.616509        16.7761 
  69   0.0000       0.625115        17.0102 
  70   0.0000       0.675151        18.3718 
  71   0.0000       0.675151        18.3718 
  72   0.0000       0.682586        18.5741 
  73   0.0000       0.691722        18.8227 
  74   0.0000       0.693177        18.8623 
  75   0.0000       0.715700        19.4752 
  76   0.0000       0.715719        19.4757 
  77   0.0000       0.723576        19.6895 
  78   0.0000       0.724374        19.7112 
  79   0.0000       0.780658        21.2428 
  80   0.0000       0.780658        21.2428 
  81   0.0000       0.781069        21.2540 
  82   0.0000       0.791749        21.5446 
  83   0.0000       0.794986        21.6327 
  84   0.0000       0.823084        22.3973 
  85   0.0000       0.823215        22.4008 
  86   0.0000       0.875152        23.8141 
  87   0.0000       0.875380        23.8203 
  88   0.0000       0.883807        24.0496 
  89   0.0000       0.886356        24.1190 
  90   0.0000       0.890593        24.2343 
  91   0.0000       0.890594        24.2343 
  92   0.0000       0.892569        24.2880 
  93   0.0000       0.924553        25.1584 
  94   0.0000       0.924578        25.1590 
  95   0.0000       0.929447        25.2915 
  96   0.0000       0.941706        25.6251 
  97   0.0000       0.941708        25.6252 
  98   0.0000       0.955684        26.0055 
  99   0.0000       0.955851        26.0100 
 100   0.0000       0.969264        26.3750 
 101   0.0000       0.969265        26.3750 
 102   0.0000       1.014471        27.6052 
 103   0.0000       1.020920        27.7806 
 104   0.0000       1.039823        28.2950 
 105   0.0000       1.084273        29.5046 
 106   0.0000       1.093786        29.7634 
 107   0.0000       1.100773        29.9536 
 108   0.0000       1.100773        29.9536 
 109   0.0000       1.117895        30.4195 
 110   0.0000       1.117975        30.4217 
 111   0.0000       1.163865        31.6704 
 112   0.0000       1.170914        31.8622 
 113   0.0000       1.176878        32.0245 
 114   0.0000       1.178032        32.0559 
 115   0.0000       1.261873        34.3373 
 116   0.0000       1.382463        37.6187 
 117   0.0000       1.382688        37.6249 
 118   0.0000       1.522506        41.4295 
 119   0.0000       1.534703        41.7614 
 120   0.0000       1.534723        41.7619 
 121   0.0000       1.575451        42.8702 
 122   0.0000       1.591535        43.3079 
 123   0.0000       1.616701        43.9927 
 124   0.0000       1.639376        44.6097 
 125   0.0000       1.708438        46.4890 
 126   0.0000       1.708789        46.4985 
 127   0.0000       1.742099        47.4049 
 128   0.0000       1.859265        50.5932 
 129   0.0000       1.864454        50.7344 
 130   0.0000       1.876183        51.0535 
 131   0.0000       1.981004        53.9059 
 132   0.0000       1.988667        54.1144 
 133   0.0000       1.988754        54.1167 
 134   0.0000       2.011778        54.7433 
 135   0.0000       2.031333        55.2754 
 136   0.0000       2.155594        58.6567 
 137   0.0000       2.155695        58.6594 
 138   0.0000       2.208824        60.1052 
 139   0.0000       2.208991        60.1097 
 140   0.0000       2.228611        60.6436 
 141   0.0000       2.243932        61.0605 
 142   0.0000       2.304942        62.7207 
 143   0.0000       2.622017        71.3487 
 144   0.0000       2.638260        71.7907 
 145   0.0000       2.670133        72.6580 
 146   0.0000       2.824348        76.8544 
 147   0.0000       2.824350        76.8545 
 148   0.0000       2.851266        77.5869 
 149   0.0000       2.851268        77.5869 
 150   0.0000       2.866606        78.0043 
 151   0.0000       3.126282        85.0705 
 152   0.0000       3.126437        85.0747 
 153   0.0000       3.602091        98.0179 
 154   0.0000       3.602383        98.0258 
 155   0.0000       3.615370        98.3792 
 156   0.0000       3.630609        98.7939 
 157   0.0000       3.634750        98.9066 
 158   0.0000       3.637734        98.9878 
 159   0.0000       3.697621       100.6174 
 160   0.0000       3.738750       101.7366 
 161   0.0000       3.928315       106.8949 
 162   0.0000       3.936367       107.1140 
 163   0.0000       3.950147       107.4890 
 164   0.0000       4.017179       109.3130 
 165   0.0000       4.017232       109.3144 
 166   0.0000       4.083359       111.1138 
 167   0.0000       4.109753       111.8321 
 168   0.0000       4.267200       116.1164 
 169   0.0000       4.303757       117.1112 
 170   0.0000       4.347242       118.2945 
 171   0.0000       4.410330       120.0112 
 172   0.0000       4.769493       129.7845 
 173   0.0000       4.775880       129.9583 
 174   0.0000       4.789025       130.3160 
 175   0.0000       4.945633       134.5775 
 176   0.0000       4.945997       134.5874 
 177   0.0000       5.125792       139.4799 
 178   0.0000       5.125919       139.4833 
 179   0.0000       5.249043       142.8337 
 180   0.0000       5.277138       143.5982 
 181   0.0000       5.290311       143.9567 
 182   0.0000       5.384373       146.5162 
 183   0.0000       5.384373       146.5163 
 184   0.0000       5.577533       151.7724 
 185   0.0000       5.577534       151.7724 
 186   0.0000       5.612956       152.7363 
 187   0.0000       5.612956       152.7363 
 188   0.0000       5.702874       155.1831 
 189   0.0000       5.703147       155.1905 
 190   0.0000       5.747403       156.3948 
 191   0.0000       5.747443       156.3959 
 192   0.0000       5.827413       158.5720 
 193   0.0000       5.848730       159.1520 
 194   0.0000       5.864649       159.5852 
 195   0.0000       5.927102       161.2847 
 196   0.0000       5.927102       161.2847 
 197   0.0000       6.305792       171.5893 
 198   0.0000       6.305796       171.5894 
 199   0.0000       6.378616       173.5710 
 200   0.0000       6.585471       179.1998 
 201   0.0000       6.609788       179.8615 
 202   0.0000       7.133210       194.1045 
 203   0.0000       7.190722       195.6695 
 204   0.0000       7.190769       195.6708 
 205   0.0000       7.891113       214.7281 
 206   0.0000       7.918086       215.4621 
 207   0.0000       8.263188       224.8528 
 208   0.0000       9.028581       245.6802 
 209   0.0000       9.028585       245.6803 
 210   0.0000       9.056292       246.4342 
 211   0.0000       9.056293       246.4343 
 212   0.0000       9.238712       251.3981 
 213   0.0000       9.239374       251.4161 
 214   0.0000       9.289856       252.7898 
 215   0.0000       9.289954       252.7925 
 216   0.0000       9.488418       258.1930 
 217   0.0000       9.528009       259.2703 
 218   0.0000       9.717044       264.4142 
 219   0.0000       9.735226       264.9090 
 220   0.0000       9.740819       265.0612 
 221   0.0000      10.146319       276.0954 
 222   0.0000      10.632661       289.3294 
 223   0.0000      10.792211       293.6710 
 224   0.0000      10.842314       295.0344 
 225   0.0000      11.521920       313.5274 
 226   0.0000      11.972423       325.7862 
 227   0.0000      11.972457       325.7871 
 228   0.0000      11.982541       326.0615 
 229   0.0000      11.982581       326.0626 
 230   0.0000      12.049774       327.8910 
 231   0.0000      12.050084       327.8995 
 232   0.0000      12.150502       330.6320 
 233   0.0000      12.178778       331.4014 
 234   0.0000      12.228717       332.7603 
 235   0.0000      12.233884       332.9009 
 236   0.0000      12.306043       334.8645 
 237   0.0000      12.582128       342.3771 
 238   0.0000      12.582803       342.3955 
 239   0.0000      12.583069       342.4027 
 240   0.0000      12.583407       342.4119 
 241   0.0000      12.677702       344.9778 
 242   0.0000      12.707002       345.7751 
 243   0.0000      12.855939       349.8279 
 244   0.0000      12.855941       349.8279 
 245   0.0000      12.957691       352.5967 
 246   0.0000      12.958109       352.6081 
 247   0.0000      13.106458       356.6448 
 248   0.0000      13.790987       375.2718 
 249   0.0000      13.817666       375.9978 
 250   0.0000      14.803606       402.8266 
 251   0.0000      16.905097       460.0111 
 252   0.0000      16.905644       460.0260 
 253   0.0000      16.977111       461.9707 
 254   0.0000      16.977143       461.9715 
 255   0.0000      17.401699       473.5243 
 256   0.0000      17.402910       473.5573 
 257   0.0000      17.531405       477.0538 
 258   0.0000      17.540368       477.2977 
 259   0.0000      17.540401       477.2986 
 260   0.0000      17.549138       477.5363 
 261   0.0000      17.909971       487.3551 
 262   0.0000      18.243007       496.4174 
 263   0.0000      18.276084       497.3175 
 264   0.0000      19.154628       521.2239 
 265   0.0000      22.820583       620.9796 
 266   0.0000      22.821214       620.9968 
 267   0.0000      23.001704       625.9082 
 268   0.0000      23.042607       627.0212 
 269   0.0000      23.782788       647.1626 
 270   0.0000      29.486634       802.3721 
 271   0.0000      31.597974       859.8246 
 272   0.0000      31.640018       860.9686 
 273   0.0000      32.520369       884.9242 
 274   0.0000      40.314279      1097.0073 
 275   0.0000      65.711278      1788.0948 
 276   0.0000      65.711321      1788.0959 
 277   0.0000      65.788535      1790.1971 
 278   0.0000      65.795045      1790.3742 
 279   0.0000      66.081795      1798.1771 
 280   0.0000      66.435611      1807.8049 
 281   0.0000      66.436119      1807.8187 
 282   0.0000      66.557518      1811.1221 
 283   0.0000      66.587587      1811.9404 
 284   0.0000      67.190891      1828.3571 
 285   0.0000     142.039195      3865.0830 

                 SPIN DOWN ORBITALS
  NO   OCC          E(Eh)            E(eV) 
   0   1.0000    -100.745690     -2741.4296 
   1   1.0000     -18.824392      -512.2377 
   2   1.0000      -9.263137      -252.0628 
   3   1.0000      -7.088025      -192.8750 
   4   1.0000      -7.076986      -192.5746 
   5   1.0000      -7.072766      -192.4598 
   6   1.0000      -0.987206       -26.8632 
   7   1.0000      -0.698814       -19.0157 
   8   1.0000      -0.434519       -11.8239 
   9   1.0000      -0.389834       -10.6079 
  10   1.0000      -0.387064       -10.5325 
  11   1.0000      -0.231407        -6.2969 
  12   0.0000      -0.219450        -5.9715 
  13   0.0000      -0.082417        -2.2427 
  14   0.0000      -0.000786        -0.0214 
  15   0.0000       0.024466         0.6658 
  16   0.0000       0.025490         0.6936 
  17   0.0000       0.026010         0.7078 
  18   0.0000       0.055030         1.4974 
  19   0.0000       0.056488         1.5371 
  20   0.0000       0.058563         1.5936 
  21   0.0000       0.102579         2.7913 
  22   0.0000       0.103067         2.8046 
  23   0.0000       0.111721         3.0401 
  24   0.0000       0.125130         3.4050 
  25   0.0000       0.125898         3.4259 
  26   0.0000       0.155807         4.2397 
  27   0.0000       0.163126         4.4389 
  28   0.0000       0.164536         4.4772 
  29   0.0000       0.175067         4.7638 
  30   0.0000       0.181346         4.9347 
  31   0.0000       0.186105         5.0642 
  32   0.0000       0.189085         5.1453 
  33   0.0000       0.192969         5.2510 
  34   0.0000       0.193589         5.2678 
  35   0.0000       0.265810         7.2331 
  36   0.0000       0.279625         7.6090 
  37   0.0000       0.279690         7.6107 
  38   0.0000       0.287035         7.8106 
  39   0.0000       0.287086         7.8120 
  40   0.0000       0.287817         7.8319 
  41   0.0000       0.288869         7.8605 
  42   0.0000       0.313351         8.5267 
  43   0.0000       0.313750         8.5376 
  44   0.0000       0.344886         9.3848 
  45   0.0000       0.366304         9.9676 
  46   0.0000       0.366872         9.9831 
  47   0.0000       0.378535        10.3005 
  48   0.0000       0.378624        10.3029 
  49   0.0000       0.400861        10.9080 
  50   0.0000       0.404014        10.9938 
  51   0.0000       0.405211        11.0263 
  52   0.0000       0.445868        12.1327 
  53   0.0000       0.463083        12.6011 
  54   0.0000       0.483479        13.1561 
  55   0.0000       0.485976        13.2241 
  56   0.0000       0.486785        13.2461 
  57   0.0000       0.487437        13.2638 
  58   0.0000       0.506956        13.7950 
  59   0.0000       0.506968        13.7953 
  60   0.0000       0.537995        14.6396 
  61   0.0000       0.551763        15.0142 
  62   0.0000       0.552486        15.0339 
  63   0.0000       0.570814        15.5326 
  64   0.0000       0.573613        15.6088 
  65   0.0000       0.595891        16.2150 
  66   0.0000       0.606716        16.5096 
  67   0.0000       0.606819        16.5124 
  68   0.0000       0.626127        17.0378 
  69   0.0000       0.626191        17.0395 
  70   0.0000       0.678126        18.4527 
  71   0.0000       0.678141        18.4532 
  72   0.0000       0.693192        18.8627 
  73   0.0000       0.694689        18.9035 
  74   0.0000       0.699040        19.0218 
  75   0.0000       0.720358        19.6019 
  76   0.0000       0.720430        19.6039 
  77   0.0000       0.733112        19.9490 
  78   0.0000       0.733984        19.9727 
  79   0.0000       0.783533        21.3210 
  80   0.0000       0.783535        21.3211 
  81   0.0000       0.783965        21.3328 
  82   0.0000       0.795030        21.6339 
  83   0.0000       0.796650        21.6780 
  84   0.0000       0.826432        22.4884 
  85   0.0000       0.827043        22.5050 
  86   0.0000       0.879742        23.9390 
  87   0.0000       0.879823        23.9412 
  88   0.0000       0.891155        24.2496 
  89   0.0000       0.893820        24.3221 
  90   0.0000       0.893958        24.3258 
  91   0.0000       0.894085        24.3293 
  92   0.0000       0.894103        24.3298 
  93   0.0000       0.931041        25.3349 
  94   0.0000       0.931622        25.3507 
  95   0.0000       0.933222        25.3943 
  96   0.0000       0.944592        25.7036 
  97   0.0000       0.944667        25.7057 
  98   0.0000       0.960340        26.1322 
  99   0.0000       0.960911        26.1477 
 100   0.0000       0.972088        26.4519 
 101   0.0000       0.972089        26.4519 
 102   0.0000       1.021242        27.7894 
 103   0.0000       1.022599        27.8263 
 104   0.0000       1.042936        28.3797 
 105   0.0000       1.094739        29.7894 
 106   0.0000       1.095098        29.7991 
 107   0.0000       1.103724        30.0339 
 108   0.0000       1.103740        30.0343 
 109   0.0000       1.121027        30.5047 
 110   0.0000       1.121534        30.5185 
 111   0.0000       1.167684        31.7743 
 112   0.0000       1.177354        32.0374 
 113   0.0000       1.178595        32.0712 
 114   0.0000       1.181461        32.1492 
 115   0.0000       1.274312        34.6758 
 116   0.0000       1.391527        37.8654 
 117   0.0000       1.392547        37.8931 
 118   0.0000       1.533186        41.7201 
 119   0.0000       1.548354        42.1329 
 120   0.0000       1.548450        42.1355 
 121   0.0000       1.592541        43.3352 
 122   0.0000       1.593215        43.3536 
 123   0.0000       1.644984        44.7623 
 124   0.0000       1.651641        44.9434 
 125   0.0000       1.729482        47.0616 
 126   0.0000       1.731884        47.1270 
 127   0.0000       1.747083        47.5405 
 128   0.0000       1.869334        50.8672 
 129   0.0000       1.879551        51.1452 
 130   0.0000       1.881894        51.2089 
 131   0.0000       1.989338        54.1326 
 132   0.0000       2.006674        54.6044 
 133   0.0000       2.006986        54.6129 
 134   0.0000       2.033591        55.3368 
 135   0.0000       2.035184        55.3802 
 136   0.0000       2.169417        59.0328 
 137   0.0000       2.170767        59.0696 
 138   0.0000       2.221560        60.4517 
 139   0.0000       2.222450        60.4759 
 140   0.0000       2.242397        61.0187 
 141   0.0000       2.244706        61.0816 
 142   0.0000       2.312412        62.9239 
 143   0.0000       2.639837        71.8336 
 144   0.0000       2.640102        71.8408 
 145   0.0000       2.680571        72.9421 
 146   0.0000       2.843216        77.3678 
 147   0.0000       2.843229        77.3682 
 148   0.0000       2.862653        77.8968 
 149   0.0000       2.862742        77.8992 
 150   0.0000       2.877807        78.3091 
 151   0.0000       3.135805        85.3296 
 152   0.0000       3.136852        85.3581 
 153   0.0000       3.616085        98.3987 
 154   0.0000       3.617084        98.4258 
 155   0.0000       3.634375        98.8964 
 156   0.0000       3.635254        98.9203 
 157   0.0000       3.655106        99.4605 
 158   0.0000       3.655210        99.4633 
 159   0.0000       3.720650       101.2440 
 160   0.0000       3.747780       101.9823 
 161   0.0000       3.943866       107.3181 
 162   0.0000       3.951787       107.5336 
 163   0.0000       3.954422       107.6053 
 164   0.0000       4.055209       110.3478 
 165   0.0000       4.060102       110.4810 
 166   0.0000       4.113838       111.9432 
 167   0.0000       4.116588       112.0180 
 168   0.0000       4.313711       117.3820 
 169   0.0000       4.324606       117.6785 
 170   0.0000       4.361288       118.6767 
 171   0.0000       4.417352       120.2023 
 172   0.0000       4.784148       130.1833 
 173   0.0000       4.790291       130.3504 
 174   0.0000       4.792363       130.4068 
 175   0.0000       4.966552       135.1468 
 176   0.0000       4.968562       135.2014 
 177   0.0000       5.165058       140.5484 
 178   0.0000       5.165731       140.5667 
 179   0.0000       5.281052       143.7047 
 180   0.0000       5.283318       143.7664 
 181   0.0000       5.310631       144.5096 
 182   0.0000       5.403340       147.0324 
 183   0.0000       5.403569       147.0386 
 184   0.0000       5.595509       152.2615 
 185   0.0000       5.595528       152.2621 
 186   0.0000       5.636137       153.3671 
 187   0.0000       5.636139       153.3671 
 188   0.0000       5.715790       155.5346 
 189   0.0000       5.716749       155.5606 
 190   0.0000       5.763600       156.8355 
 191   0.0000       5.765250       156.8804 
 192   0.0000       5.836576       158.8213 
 193   0.0000       5.861803       159.5078 
 194   0.0000       5.865477       159.6077 
 195   0.0000       5.966139       162.3469 
 196   0.0000       5.966293       162.3511 
 197   0.0000       6.330269       172.2554 
 198   0.0000       6.330564       172.2634 
 199   0.0000       6.389625       173.8705 
 200   0.0000       6.612111       179.9247 
 201   0.0000       6.613066       179.9507 
 202   0.0000       7.146280       194.4602 
 203   0.0000       7.208989       196.1666 
 204   0.0000       7.210916       196.2190 
 205   0.0000       7.921965       215.5676 
 206   0.0000       7.923534       215.6103 
 207   0.0000       8.277690       225.2474 
 208   0.0000       9.052001       246.3175 
 209   0.0000       9.052004       246.3175 
 210   0.0000       9.072302       246.8699 
 211   0.0000       9.072362       246.8715 
 212   0.0000       9.283209       252.6090 
 213   0.0000       9.286185       252.6899 
 214   0.0000       9.317736       253.5485 
 215   0.0000       9.323664       253.7098 
 216   0.0000       9.536102       259.4905 
 217   0.0000       9.551347       259.9054 
 218   0.0000       9.734943       264.9013 
 219   0.0000       9.736684       264.9486 
 220   0.0000       9.756767       265.4951 
 221   0.0000      10.166076       276.6330 
 222   0.0000      10.667444       290.2759 
 223   0.0000      10.856931       295.4321 
 224   0.0000      10.872401       295.8531 
 225   0.0000      11.544151       314.1323 
 226   0.0000      12.015268       326.9521 
 227   0.0000      12.015373       326.9549 
 228   0.0000      12.037711       327.5628 
 229   0.0000      12.037757       327.5640 
 230   0.0000      12.083853       328.8184 
 231   0.0000      12.084269       328.8297 
 232   0.0000      12.181453       331.4742 
 233   0.0000      12.183503       331.5300 
 234   0.0000      12.257349       333.5394 
 235   0.0000      12.259882       333.6083 
 236   0.0000      12.319925       335.2422 
 237   0.0000      12.618699       343.3723 
 238   0.0000      12.622732       343.4820 
 239   0.0000      12.652865       344.3020 
 240   0.0000      12.654261       344.3399 
 241   0.0000      12.710272       345.8641 
 242   0.0000      12.717729       346.0670 
 243   0.0000      12.861983       349.9924 
 244   0.0000      12.862062       349.9945 
 245   0.0000      12.973440       353.0253 
 246   0.0000      12.975079       353.0699 
 247   0.0000      13.125640       357.1668 
 248   0.0000      13.821644       376.1061 
 249   0.0000      13.825713       376.2168 
 250   0.0000      14.816486       403.1771 
 251   0.0000      16.977746       461.9880 
 252   0.0000      16.978761       462.0156 
 253   0.0000      17.031829       463.4596 
 254   0.0000      17.032852       463.4875 
 255   0.0000      17.441263       474.6009 
 256   0.0000      17.445733       474.7225 
 257   0.0000      17.548158       477.5097 
 258   0.0000      17.548436       477.5172 
 259   0.0000      17.551013       477.5873 
 260   0.0000      17.551936       477.6125 
 261   0.0000      17.927845       487.8415 
 262   0.0000      18.281098       497.4540 
 263   0.0000      18.289465       497.6816 
 264   0.0000      19.171168       521.6740 
 265   0.0000      22.890025       622.8692 
 266   0.0000      22.896070       623.0337 
 267   0.0000      23.050449       627.2346 
 268   0.0000      23.075224       627.9088 
 269   0.0000      23.808798       647.8703 
 270   0.0000      29.519567       803.2682 
 271   0.0000      31.654823       861.3715 
 272   0.0000      31.675151       861.9247 
 273   0.0000      32.539203       885.4367 
 274   0.0000      40.321522      1097.2044 
 275   0.0000      65.718652      1788.2954 
 276   0.0000      65.718715      1788.2972 
 277   0.0000      65.795741      1790.3931 
 278   0.0000      65.795956      1790.3990 
 279   0.0000      66.086809      1798.3135 
 280   0.0000      66.482867      1809.0908 
 281   0.0000      66.486765      1809.1969 
 282   0.0000      66.594598      1812.1311 
 283   0.0000      66.608357      1812.5055 
 284   0.0000      67.209865      1828.8734 
 285   0.0000     142.057216      3865.5734 

                    ********************************
                    * MULLIKEN POPULATION ANALYSIS *
                    ********************************

--------------------------------------------
MULLIKEN ATOMIC CHARGES AND SPIN POPULATIONS
--------------------------------------------
   0 O :   -0.139213    0.643961
   1 Cl:    0.139213    0.356039
Sum of atomic charges         :    0.0000000
Sum of atomic spin populations:    1.0000000

-----------------------------------------------------
MULLIKEN REDUCED ORBITAL CHARGES AND SPIN POPULATIONS
-----------------------------------------------------
CHARGE
  0 O s       :     3.867063  s :     3.867063
      pz      :     1.029267  p :     4.216646
      px      :     1.290588
      py      :     1.896791
      dz2     :     0.007410  d :     0.048149
      dxz     :     0.020898
      dyz     :     0.019684
      dx2y2   :     0.000157
      dxy     :     0.000000
      f0      :     0.001425  f :     0.006584
      f+1     :     0.003437
      f-1     :     0.001638
      f+2     :     0.000013
      f-2     :     0.000000
      f+3     :     0.000035
      f-3     :     0.000036
      g0      :     0.000171  g :     0.000555
      g+1     :     0.000406
      g-1     :    -0.000032
      g+2     :     0.000000
      g-2     :     0.000000
      g+3     :     0.000004
      g-3     :     0.000005
      g+4     :     0.000000
      g-4     :     0.000000
      h0      :     0.000019  h :     0.000216
      h+1     :     0.000120
      h-1     :     0.000073
      h+2     :     0.000000
      h-2     :     0.000000
      h+3     :     0.000001
      h-3     :     0.000001
      h+4     :     0.000000
      h-4     :     0.000000
      h+5     :     0.000000
      h-5     :     0.000000
  1 Cls       :     6.022106  s :     6.022106
      pz      :     3.018908  p :    10.605798
      px      :     3.620320
      py      :     3.966570
      dz2     :     0.046395  d :     0.203324
      dxz     :     0.055088
      dyz     :     0.101628
      dx2y2   :     0.000214
      dxy     :     0.000000
      f0      :     0.006174  f :     0.026926
      f+1     :     0.008295
      f-1     :     0.012360
      f+2     :     0.000021
      f-2     :     0.000000
      f+3     :     0.000037
      f-3     :     0.000039
      g0      :     0.000628  g :     0.002740
      g+1     :     0.000783
      g-1     :     0.001315
      g+2     :     0.000002
      g-2     :     0.000000
      g+3     :     0.000006
      g-3     :     0.000006
      g+4     :     0.000000
      g-4     :     0.000000
      h0      :     0.000026  h :    -0.000108
      h+1     :    -0.000020
      h-1     :    -0.000116
      h+2     :     0.000000
      h-2     :     0.000000
      h+3     :     0.000001
      h-3     :     0.000001
      h+4     :     0.000000
      h-4     :     0.000000
      h+5     :     0.000000
      h-5     :     0.000000

SPIN
  0 O s       :     0.001012  s :     0.001012
      pz      :     0.010877  p :     0.640970
      px      :     0.625394
      py      :     0.004700
      dz2     :     0.000569  d :     0.000960
      dxz     :    -0.000203
      dyz     :     0.000455
      dx2y2   :     0.000139
      dxy     :     0.000000
      f0      :    -0.000110  f :     0.000355
      f+1     :    -0.000077
      f-1     :     0.000456
      f+2     :     0.000015
      f-2     :     0.000000
      f+3     :     0.000035
      f-3     :     0.000036
      g0      :     0.000038  g :     0.000481
      g+1     :     0.000226
      g-1     :     0.000208
      g+2     :     0.000002
      g-2     :     0.000000
      g+3     :     0.000004
      g-3     :     0.000004
      g+4     :    -0.000000
      g-4     :    -0.000000
      h0      :     0.000012  h :     0.000182
      h+1     :     0.000109
      h-1     :     0.000058
      h+2     :     0.000001
      h-2     :     0.000000
      h+3     :     0.000001
      h-3     :     0.000001
      h+4     :    -0.000000
      h-4     :    -0.000000
      h+5     :    -0.000000
      h-5     :    -0.000000
  1 Cls       :     0.000643  s :     0.000643
      pz      :    -0.013329  p :     0.328487
      px      :     0.343662
      py      :    -0.001846
      dz2     :    -0.000181  d :     0.024575
      dxz     :     0.028090
      dyz     :    -0.003520
      dx2y2   :     0.000187
      dxy     :     0.000000
      f0      :    -0.000119  f :     0.002225
      f+1     :     0.002679
      f-1     :    -0.000421
      f+2     :     0.000011
      f-2     :     0.000000
      f+3     :     0.000037
      f-3     :     0.000037
      g0      :     0.000184  g :     0.000135
      g+1     :     0.000118
      g-1     :    -0.000171
      g+2     :    -0.000001
      g-2     :    -0.000000
      g+3     :     0.000002
      g-3     :     0.000003
      g+4     :    -0.000000
      g-4     :    -0.000000
      h0      :     0.000050  h :    -0.000025
      h+1     :    -0.000076
      h-1     :    -0.000001
      h+2     :     0.000000
      h-2     :     0.000000
      h+3     :     0.000001
      h-3     :     0.000001
      h+4     :    -0.000000
      h-4     :    -0.000000
      h+5     :    -0.000000
      h-5     :    -0.000000


                     *******************************
                     * LOEWDIN POPULATION ANALYSIS *
                     *******************************

-------------------------------------------
LOEWDIN ATOMIC CHARGES AND SPIN POPULATIONS
-------------------------------------------
   0 O :   -0.880030    0.639617
   1 Cl:    0.880030    0.360383

----------------------------------------------------
LOEWDIN REDUCED ORBITAL CHARGES AND SPIN POPULATIONS
----------------------------------------------------
CHARGE
  0 O s       :     3.529664  s :     3.529664
      pz      :     1.357944  p :     4.268749
      px      :     1.203022
      py      :     1.707783
      dz2     :     0.225229  d :     0.560546
      dxz     :     0.147306
      dyz     :     0.187857
      dx2y2   :     0.000154
      dxy     :     0.000000
      f0      :     0.100128  f :     0.313037
      f+1     :     0.090716
      f-1     :     0.122104
      f+2     :     0.000018
      f-2     :     0.000000
      f+3     :     0.000035
      f-3     :     0.000036
      g0      :     0.040091  g :     0.145150
      g+1     :     0.044296
      g-1     :     0.060750
      g+2     :     0.000007
      g-2     :     0.000000
      g+3     :     0.000003
      g-3     :     0.000003
      g+4     :     0.000000
      g-4     :     0.000000
      h0      :     0.015166  h :     0.062884
      h+1     :     0.020718
      h-1     :     0.026988
      h+2     :     0.000006
      h-2     :     0.000000
      h+3     :     0.000002
      h-3     :     0.000002
      h+4     :     0.000000
      h-4     :     0.000000
      h+5     :     0.000000
      h-5     :     0.000000
  1 Cls       :     5.346432  s :     5.346432
      pz      :     3.015011  p :     9.868185
      px      :     3.301499
      py      :     3.551675
      dz2     :     0.217010  d :     0.527662
      dxz     :     0.109503
      dyz     :     0.200955
      dx2y2   :     0.000193
      dxy     :     0.000000
      f0      :     0.094823  f :     0.227040
      f+1     :     0.048155
      f-1     :     0.083957
      f+2     :     0.000022
      f-2     :     0.000000
      f+3     :     0.000040
      f-3     :     0.000042
      g0      :     0.041259  g :     0.105985
      g+1     :     0.023590
      g-1     :     0.041123
      g+2     :     0.000004
      g-2     :     0.000000
      g+3     :     0.000004
      g-3     :     0.000004
      g+4     :     0.000000
      g-4     :     0.000000
      h0      :     0.016834  h :     0.044665
      h+1     :     0.011108
      h-1     :     0.016719
      h+2     :     0.000002
      h-2     :     0.000000
      h+3     :     0.000001
      h-3     :     0.000001
      h+4     :     0.000000
      h-4     :     0.000000
      h+5     :     0.000000
      h-5     :     0.000000

SPIN
  0 O s       :     0.004857  s :     0.004857
      pz      :     0.009480  p :     0.550176
      px      :     0.535046
      py      :     0.005650
      dz2     :    -0.000387  d :     0.032234
      dxz     :     0.033769
      dyz     :    -0.001281
      dx2y2   :     0.000133
      dxy     :     0.000000
      f0      :    -0.000517  f :     0.029129
      f+1     :     0.029808
      f-1     :    -0.000246
      f+2     :     0.000016
      f-2     :     0.000000
      f+3     :     0.000034
      f-3     :     0.000035
      g0      :    -0.000248  g :     0.016500
      g+1     :     0.016661
      g-1     :     0.000077
      g+2     :     0.000006
      g-2     :     0.000000
      g+3     :     0.000002
      g-3     :     0.000002
      g+4     :    -0.000000
      g-4     :    -0.000000
      h0      :    -0.000202  h :     0.006720
      h+1     :     0.006814
      h-1     :     0.000098
      h+2     :     0.000006
      h-2     :     0.000000
      h+3     :     0.000002
      h-3     :     0.000002
      h+4     :    -0.000000
      h-4     :    -0.000000
      h+5     :    -0.000000
      h-5     :    -0.000000
  1 Cls       :    -0.000008  s :    -0.000008
      pz      :    -0.013740  p :     0.242670
      px      :     0.255738
      py      :     0.000672
      dz2     :    -0.000011  d :     0.061283
      dxz     :     0.065765
      dyz     :    -0.004649
      dx2y2   :     0.000178
      dxy     :     0.000000
      f0      :     0.000079  f :     0.033092
      f+1     :     0.033309
      f-1     :    -0.000391
      f+2     :     0.000014
      f-2     :     0.000000
      f+3     :     0.000040
      f-3     :     0.000041
      g0      :     0.000269  g :     0.017203
      g+1     :     0.017030
      g-1     :    -0.000099
      g+2     :     0.000001
      g-2     :     0.000000
      g+3     :     0.000001
      g-3     :     0.000001
      g+4     :    -0.000000
      g-4     :    -0.000000
      h0      :     0.000073  h :     0.006143
      h+1     :     0.005981
      h-1     :     0.000086
      h+2     :     0.000002
      h-2     :     0.000000
      h+3     :     0.000001
      h-3     :     0.000001
      h+4     :    -0.000000
      h-4     :    -0.000000
      h+5     :    -0.000000
      h-5     :    -0.000000


                      *****************************
                      * MAYER POPULATION ANALYSIS *
                      *****************************

  NA   - Mulliken gross atomic population
  ZA   - Total nuclear charge
  QA   - Mulliken gross atomic charge
  VA   - Mayer's total valence
  BVA  - Mayer's bonded valence
  FA   - Mayer's free valence

  ATOM       NA         ZA         QA         VA         BVA        FA
  0 O      8.1392     8.0000    -0.1392     2.0192     1.6169     0.4023
  1 Cl    16.8608    17.0000     0.1392     1.7833     1.6169     0.1664

  Mayer bond orders larger than 0.1
B(  0-O ,  1-Cl) :   1.6169 

-------
TIMINGS
-------

Total SCF time: 0 days 0 hours 7 min 2 sec 

Total time                  ....     422.253 sec
Sum of individual times     ....     421.601 sec  ( 99.8%)

Fock matrix formation       ....     419.690 sec  ( 99.4%)
  XC integration            ....       7.340 sec  (  1.7% of F)
    Basis function eval.    ....       0.582 sec  (  7.9% of XC)
    Density eval.           ....       1.431 sec  ( 19.5% of XC)
    XC-Functional eval.     ....       0.134 sec  (  1.8% of XC)
    XC-Potential eval.      ....       4.618 sec  ( 62.9% of XC)
Diagonalization             ....       0.722 sec  (  0.2%)
Density matrix formation    ....       0.015 sec  (  0.0%)
Population analysis         ....       0.066 sec  (  0.0%)
Initial guess               ....       0.365 sec  (  0.1%)
Orbital Transformation      ....       0.000 sec  (  0.0%)
Orbital Orthonormalization  ....       0.000 sec  (  0.0%)
DIIS solution               ....       0.475 sec  (  0.1%)
Grid generation             ....       0.266 sec  (  0.1%)

-------------------------   --------------------
FINAL SINGLE POINT ENERGY      -535.120439979478
-------------------------   --------------------


                            ***************************************
                            *     ORCA property calculations      *
                            ***************************************

                                    ---------------------
                                    Active property flags
                                    ---------------------
   (+) Dipole Moment


------------------------------------------------------------------------------
                       ORCA ELECTRIC PROPERTIES CALCULATION
------------------------------------------------------------------------------

Dipole Moment Calculation                       ... on
Quadrupole Moment Calculation                   ... off
Polarizability Calculation                      ... off
GBWName                                         ... ocl_pbe_+0001_z.gbw
Electron density file                           ... ocl_pbe_+0001_z.scfp.tmp
The origin for moment calculation is the CENTER OF MASS  = ( 0.000000,  0.000000  2.043801)

-------------
DIPOLE MOMENT
-------------
                                X             Y             Z
Electronic contribution:     -0.00000      -0.00000       1.22877
Nuclear contribution   :      0.00000       0.00000      -0.67108
                        -----------------------------------------
Total Dipole Moment    :     -0.00000      -0.00000       0.55769
                        -----------------------------------------
Magnitude (a.u.)       :      0.55769
Magnitude (Debye)      :      1.41753



--------------------
Rotational spectrum 
--------------------
 
Rotational constants in cm-1:     0.000000     0.620691     0.620691 
Rotational constants in MHz :     0.000000 18607.843970 18607.843970 

 Dipole components along the rotational axes: 
x,y,z [a.u.] :     0.557689    -0.000000    -0.000000 
x,y,z [Debye]:     1.417532    -0.000000    -0.000000 

 

Timings for individual modules:

Sum of individual times         ...      424.168 sec (=   7.069 min)
GTO integral calculation        ...        1.619 sec (=   0.027 min)   0.4 %
SCF iterations                  ...      422.549 sec (=   7.042 min)  99.6 %
                             ****ORCA TERMINATED NORMALLY****
TOTAL RUN TIME: 0 days 0 hours 7 minutes 5 seconds 6 msec
