
                                 *****************
                                 * O   R   C   A *
                                 *****************

           --- An Ab Initio, DFT and Semiempirical electronic structure package ---

                  #######################################################
                  #                        -***-                        #
                  #          Department of theory and spectroscopy      #
                  #               Directorship: Frank Neese             #
                  #        Max Planck Institute fuer Kohlenforschung    #
                  #                Kaiser Wilhelm Platz 1               #
                  #                 D-45470 Muelheim/Ruhr               #
                  #                      Germany                        #
                  #                                                     #
                  #                  All rights reserved                #
                  #                        -***-                        #
                  #######################################################


                         Program Version 4.1.2  - RELEASE  -


 With contributions from (in alphabetic order):
   Daniel Aravena         : Magnetic Properties
   Michael Atanasov       : Ab Initio Ligand Field Theory
   Alexander A. Auer      : GIAO ZORA
   Ute Becker             : Parallelization
   Giovanni Bistoni       : ED, Open-shell LED
   Martin Brehm           : Molecular dynamics
   Dmytro Bykov           : SCF Hessian
   Vijay G. Chilkuri      : MRCI spin determinant printing
   Dipayan Datta          : RHF DLPNO-CCSD density
   Achintya Kumar Dutta   : EOM-CC, STEOM-CC
   Dmitry Ganyushin       : Spin-Orbit,Spin-Spin,Magnetic field MRCI
   Miquel Garcia          : C-PCM Hessian
   Yang Guo               : DLPNO-NEVPT2, CIM, IAO-localization
   Andreas Hansen         : Spin unrestricted coupled pair/coupled cluster methods
   Benjamin Helmich-Paris : CASSCF linear response (MC-RPA)
   Lee Huntington         : MR-EOM, pCC
   Robert Izsak           : Overlap fitted RIJCOSX, COSX-SCS-MP3, EOM
   Christian Kollmar      : KDIIS, OOCD, Brueckner-CCSD(T), CCSD density
   Simone Kossmann        : Meta GGA functionals, TD-DFT gradient, OOMP2, MP2 Hessian
   Martin Krupicka        : AUTO-CI
   Lucas Lang             : DCDCAS
   Dagmar Lenk            : GEPOL surface, SMD
   Dimitrios Liakos       : Extrapolation schemes; parallel MDCI
   Dimitrios Manganas     : ROCIS; embedding schemes
   Dimitrios Pantazis     : SARC Basis sets
   Taras Petrenko         : DFT Hessian,TD-DFT gradient, ASA, ECA, R-Raman, ABS, FL, XAS/XES, NRVS
   Peter Pinski           : DLPNO-MP2, DLPNO-MP2 Gradient
   Christoph Reimann      : Effective Core Potentials
   Marius Retegan         : Local ZFS, SOC
   Christoph Riplinger    : Optimizer, TS searches, QM/MM, DLPNO-CCSD(T), (RO)-DLPNO pert. Triples
   Tobias Risthaus        : Range-separated hybrids, TD-DFT gradient, RPA, STAB
   Michael Roemelt        : Restricted open shell CIS
   Masaaki Saitow         : Open-shell DLPNO
   Barbara Sandhoefer     : DKH picture change effects
   Avijit Sen             : IP-ROCIS
   Kantharuban Sivalingam : CASSCF convergence, NEVPT2, FIC-MRCI
   Bernardo de Souza      : ESD, SOC TD-DFT
   Georgi Stoychev        : AutoAux, RI-MP2 NMR
   Willem Van den Heuvel  : Paramagnetic NMR
   Boris Wezisla          : Elementary symmetry handling
   Frank Wennmohs         : Technical directorship


 We gratefully acknowledge several colleagues who have allowed us to
 interface, adapt or use parts of their codes:
   Stefan Grimme, W. Hujo, H. Kruse,             : VdW corrections, initial TS optimization,
                  C. Bannwarth                     DFT functionals, gCP, sTDA/sTD-DF
   Ed Valeev                                     : LibInt (2-el integral package), F12 methods
   Garnet Chan, S. Sharma, J. Yang, R. Olivares  : DMRG
   Ulf Ekstrom                                   : XCFun DFT Library
   Mihaly Kallay                                 : mrcc  (arbitrary order and MRCC methods)
   Andreas Klamt, Michael Diedenhofen            : otool_cosmo (COSMO solvation model)
   Jiri Pittner, Ondrej Demel                    : Mk-CCSD
   Frank Weinhold                                : gennbo (NPA and NBO analysis)
   Christopher J. Cramer and Donald G. Truhlar   : smd solvation model
   Lars Goerigk                                  : TD-DFT with DH, B97 family of functionals
   V. Asgeirsson, H. Jonsson                     : NEB implementation
   FAccTs GmbH                                   : IRC, NEB, NEB-TS, Multilevel


 Your calculation uses the libint2 library for the computation of 2-el integrals
 For citations please refer to: http://libint.valeyev.net

 This ORCA versions uses:
   CBLAS   interface :  Fast vector & matrix operations
   LAPACKE interface :  Fast linear algebra routines
   SCALAPACK package :  Parallel linear algebra routines


----- Orbital basis set information -----
Your calculation utilizes the basis: aug-pc-4
   H, C-F              : F. Jensen, J. Chem. Phys. 115, 9113 (2001).
                         F. Jensen, J. Chem. Phys. 116, 7372 (2002).
                         F. Jensen, J. Chem. Phys. 117, 9234 (2002).
   Si-Cl               : F. Jensen, T. Helgaker, J. Chem. Phys. 121, 3463 (2004).
   He-B, Ne-Mg, Al, Ar : F. Jensen, J. Phys. Chem. A 111, 11198 (2007).
   K, Ca, Ga-Kr        : F. Jensen, J. Chem. Phys. 136, 094110 (2012).
   Sc-Zn               : F. Jensen, J. Chem. Phys. 138, 014107 (2013).

================================================================================
                                        WARNINGS
                       Please study these warnings very carefully!
================================================================================


INFO   : the flag for use of LIBINT has been found!

================================================================================
                                       INPUT FILE
================================================================================
NAME = ocl_pbe_00.inp
|  1> !uks pbe nori aug-pc-4 grid5 nofinalgrid verytightscf
|  2> 
|  3> %maxcore 6000
|  4> 
|  5> %pal nprocs 4 end
|  6> 
|  7> %scf
|  8> 	efield 0.0, 0.0, 0.0
|  9> 	maxiter 200
| 10> end
| 11> 
| 12> * xyz 0 2
| 13> O 0.0000 0.0000 0.0000
| 14> Cl 0.0000 0.0000 1.5696
| 15> *
| 16> 
| 17>                          ****END OF INPUT****
================================================================================

                       ****************************
                       * Single Point Calculation *
                       ****************************

---------------------------------
CARTESIAN COORDINATES (ANGSTROEM)
---------------------------------
  O      0.000000    0.000000    0.000000
  Cl     0.000000    0.000000    1.569600

----------------------------
CARTESIAN COORDINATES (A.U.)
----------------------------
  NO LB      ZA    FRAG     MASS         X           Y           Z
   0 O     8.0000    0    15.999    0.000000    0.000000    0.000000
   1 Cl   17.0000    0    35.453    0.000000    0.000000    2.966114

--------------------------------
INTERNAL COORDINATES (ANGSTROEM)
--------------------------------
 O      0   0   0     0.000000000000     0.00000000     0.00000000
 Cl     1   0   0     1.569600000000     0.00000000     0.00000000

---------------------------
INTERNAL COORDINATES (A.U.)
---------------------------
 O      0   0   0     0.000000000000     0.00000000     0.00000000
 Cl     1   0   0     2.966114139803     0.00000000     0.00000000

---------------------
BASIS SET INFORMATION
---------------------
There are 2 groups of distinct atoms

 Group   1 Type O   : 27s12p7d4f3g2h contracted to 9s8p7d4f3g2h pattern {1191111111/51111111/1111111/1111/111/11}
 Group   2 Type Cl  : 44s27p7d4f3g2h contracted to 8s7p7d4f3g2h pattern {15121211111/111111111/1111111/1111/111/11}

Atom   0O    basis set group =>   1
Atom   1Cl   basis set group =>   2


           ************************************************************
           *        Program running with 4 parallel MPI-processes     *
           *              working on a common directory               *
           ************************************************************
------------------------------------------------------------------------------
                           ORCA GTO INTEGRAL CALCULATION
------------------------------------------------------------------------------

                         BASIS SET STATISTICS AND STARTUP INFO

 # of primitive gaussian shells          ...  142
 # of primitive gaussian functions       ...  412
 # of contracted shells                  ...   64
 # of contracted basis functions         ...  286
 Highest angular momentum                ...    5
 Maximum contraction depth               ...   15
 Integral package used                   ... LIBINT
 Integral threshhold            Thresh   ...  1.000e-12
 Primitive cut-off              TCut     ...  1.000e-14


------------------------------ INTEGRAL EVALUATION ----------------------------


 * One electron integrals 
 Pre-screening matrix                    ... done
 Shell pair data                         ... done (   0.001 sec)



           ************************************************************
           *        Program running with 4 parallel MPI-processes     *
           *              working on a common directory               *
           ************************************************************
-------------------------------------------------------------------------------
                                 ORCA SCF
-------------------------------------------------------------------------------

------------
SCF SETTINGS
------------
Hamiltonian:
 Density Functional     Method          .... DFT(GTOs)
 Exchange Functional    Exchange        .... PBE
   PBE kappa parameter   XKappa         ....  0.804000
   PBE mue parameter    XMuePBE         ....  0.219520
 Correlation Functional Correlation     .... PBE
   PBE beta parameter  CBetaPBE         ....  0.066725
 LDA part of GGA corr.  LDAOpt          .... PW91-LDA
 Gradients option       PostSCFGGA      .... off
   Density functional embedding theory  .... OFF
   NL short-range parameter             ....  6.400000


General Settings:
 Integral files         IntName         .... ocl_pbe_00
 Hartree-Fock type      HFTyp           .... UHF
 Total Charge           Charge          ....    0
 Multiplicity           Mult            ....    2
 Number of Electrons    NEL             ....   25
 Basis Dimension        Dim             ....  286
 Nuclear Repulsion      ENuc            ....     45.8512361932 Eh

Convergence Acceleration:
 DIIS                   CNVDIIS         .... on
   Start iteration      DIISMaxIt       ....    12
   Startup error        DIISStart       ....  0.200000
   # of expansion vecs  DIISMaxEq       ....     5
   Bias factor          DIISBfac        ....   1.050
   Max. coefficient     DIISMaxC        ....  10.000
 Newton-Raphson         CNVNR           .... off
 SOSCF                  CNVSOSCF        .... off
 Level Shifting         CNVShift        .... on
   Level shift para.    LevelShift      ....    0.2500
   Turn off err/grad.   ShiftErr        ....    0.0010
 Zerner damping         CNVZerner       .... off
 Static damping         CNVDamp         .... on
   Fraction old density DampFac         ....    0.7000
   Max. Damping (<1)    DampMax         ....    0.9800
   Min. Damping (>=0)   DampMin         ....    0.0000
   Turn off err/grad.   DampErr         ....    0.1000
 Fernandez-Rico         CNVRico         .... off

SCF Procedure:
 Maximum # iterations   MaxIter         ....   200
 SCF integral mode      SCFMode         .... Direct
   Integral package                     .... LIBINT
 Reset frequency        DirectResetFreq ....    20
 Integral Threshold     Thresh          ....  1.000e-12 Eh
 Primitive CutOff       TCut            ....  1.000e-14 Eh

Convergence Tolerance:
 Convergence Check Mode ConvCheckMode   .... Total+1el-Energy
 Convergence forced     ConvForced      .... 0
 Energy Change          TolE            ....  1.000e-09 Eh
 1-El. energy change                    ....  1.000e-06 Eh
 DIIS Error             TolErr          ....  1.000e-08


Diagonalization of the overlap matrix:
Smallest eigenvalue                        ... 6.708e-06
Time for diagonalization                   ...    0.013 sec
Threshold for overlap eigenvalues          ... 1.000e-08
Number of eigenvalues below threshold      ... 0
Time for construction of square roots      ...    0.014 sec
Total time needed                          ...    0.028 sec

-------------------
DFT GRID GENERATION
-------------------

General Integration Accuracy     IntAcc      ...  5.010
Radial Grid Type                 RadialGrid  ... Gauss-Chebyshev
Angular Grid (max. acc.)         AngularGrid ... Lebedev-434
Angular grid pruning method      GridPruning ... 3 (G Style)
Weight generation scheme         WeightScheme... Becke
Basis function cutoff            BFCut       ...    1.0000e-12
Integration weight cutoff        WCut        ...    1.0000e-14
Grids for H and He will be reduced by one unit

# of grid points (after initial pruning)     ...  22726 (   0.0 sec)
# of grid points (after weights+screening)   ...  22659 (   0.0 sec)
nearest neighbour list constructed           ...    0.0 sec
Grid point re-assignment to atoms done       ...    0.0 sec
Grid point division into batches done        ...    0.2 sec
Reduced shell lists constructed in    0.2 sec

Total number of grid points                  ...    22659
Total number of batches                      ...      355
Average number of points per batch           ...       63
Average number of grid points per atom       ...    11330
Average number of shells per batch           ...    39.12 (61.13%)
Average number of basis functions per batch  ...   183.68 (64.22%)
Average number of large shells per batch     ...    33.42 (85.43%)
Average number of large basis fcns per batch ...   157.80 (85.91%)
Maximum spatial batch extension              ...  16.29, 16.29, 13.53 au
Average spatial batch extension              ...   1.43,  1.42,  1.23 au

Time for grid setup =    0.260 sec

------------------------------
INITIAL GUESS: MODEL POTENTIAL
------------------------------
Loading Hartree-Fock densities                     ... done
Calculating cut-offs                               ... done
Setting up the integral package                    ... done
Initializing the effective Hamiltonian             ... done
Starting the Coulomb interaction                   ... done (   0.0 sec)
Reading the grid                                   ... done
Mapping shells                                     ... done
Starting the XC term evaluation                    ... done (   0.2 sec)
  promolecular density results
     # of electrons  =     25.000002806
     EX              =    -35.481709167
     EC              =     -0.931028800
     EX+EC           =    -36.412737968
Transforming the Hamiltonian                       ... done (   0.0 sec)
Diagonalizing the Hamiltonian                      ... done (   0.0 sec)
Back transforming the eigenvectors                 ... done (   0.0 sec)
Now organizing SCF variables                       ... done
                      ------------------
                      INITIAL GUESS DONE (   0.6 sec)
                      ------------------
--------------
SCF ITERATIONS
--------------
ITER       Energy         Delta-E        Max-DP      RMS-DP      [F,P]     Damp
               ***  Starting incremental Fock matrix formation  ***
  0   -535.0178286511   0.000000000000 0.02210311  0.00028765  0.3016957 0.7000
  1   -535.0759093941  -0.058080742995 0.01340242  0.00013326  0.0416942 0.7000
                               ***Turning on DIIS***
  2   -535.0820142992  -0.006104905108 0.02692573  0.00021731  0.0629991 0.0000
  3   -535.1185928715  -0.036578572237 0.00490142  0.00009892  0.0272517 0.0000
  4   -535.1193662219  -0.000773350434 0.00455422  0.00003642  0.0226878 0.0000
  5   -535.1198560213  -0.000489799376 0.00093019  0.00001339  0.0028037 0.0000
  6   -535.1198874206  -0.000031399299 0.00036867  0.00000488  0.0010626 0.0000
  7   -535.1198938937  -0.000006473125 0.00043720  0.00000411  0.0005658 0.0000
  8   -535.1198963769  -0.000002483165 0.00011443  0.00000130  0.0005606 0.0000
  9   -535.1198967564  -0.000000379534 0.00004946  0.00000047  0.0001822 0.0000
 10   -535.1198968133  -0.000000056940 0.00000841  0.00000011  0.0000396 0.0000
 11   -535.1198968159  -0.000000002532 0.00000577  0.00000005  0.0000142 0.0000
 12   -535.1198968163  -0.000000000406 0.00000102  0.00000001  0.0000052 0.0000
 13   -535.1198968163  -0.000000000055 0.00000212  0.00000001  0.0000010 0.0000
 14   -535.1198968163  -0.000000000003 0.00000189  0.00000001  0.0000002 0.0000
                 **** Energy Check signals convergence ****

               *****************************************************
               *                     SUCCESS                       *
               *           SCF CONVERGED AFTER  15 CYCLES          *
               *****************************************************


----------------
TOTAL SCF ENERGY
----------------

Total Energy       :         -535.11989682 Eh          -14561.35268 eV

Components:
Nuclear Repulsion  :           45.85123619 Eh            1247.67557 eV
Electronic Energy  :         -580.97113301 Eh          -15809.02824 eV
One Electron Energy:         -829.24844344 Eh          -22564.99733 eV
Two Electron Energy:          248.27731043 Eh            6755.96908 eV

Virial components:
Potential Energy   :        -1069.63015860 Eh          -29106.11634 eV
Kinetic Energy     :          534.51026178 Eh           14544.76366 eV
Virial Ratio       :            2.00114055


DFT components:
N(Alpha)           :       13.000001262214 electrons
N(Beta)            :       12.000001325781 electrons
N(Total)           :       25.000002587995 electrons
E(X)               :      -35.557454466973 Eh       
E(C)               :       -0.926049444590 Eh       
E(XC)              :      -36.483503911564 Eh       
DFET-embed. en.    :        0.000000000000 Eh       

---------------
SCF CONVERGENCE
---------------

  Last Energy change         ...   -9.0949e-13  Tolerance :   1.0000e-09
  Last MAX-Density change    ...    4.2815e-06  Tolerance :   1.0000e-08
  Last RMS-Density change    ...    2.5312e-08  Tolerance :   1.0000e-09
  Last DIIS Error            ...    5.4180e-08  Tolerance :   1.0000e-08

             **** THE GBW FILE WAS UPDATED (ocl_pbe_00.gbw) ****
             **** DENSITY FILE WAS UPDATED (ocl_pbe_00.scfp.tmp) ****
             **** ENERGY FILE WAS UPDATED (ocl_pbe_00.en.tmp) ****
----------------------
UHF SPIN CONTAMINATION
----------------------

Warning: in a DFT calculation there is little theoretical justification to 
         calculate <S**2> as in Hartree-Fock theory. We will do it anyways
         but you should keep in mind that the values have only limited relevance

Expectation value of <S**2>     :     0.752880
Ideal value S*(S+1) for S=0.5   :     0.750000
Deviation                       :     0.002880

----------------
ORBITAL ENERGIES
----------------
                 SPIN UP ORBITALS
  NO   OCC          E(Eh)            E(eV) 
   0   1.0000    -100.747807     -2741.4872 
   1   1.0000     -18.840556      -512.6776 
   2   1.0000      -9.265215      -252.1193 
   3   1.0000      -7.089072      -192.9034 
   4   1.0000      -7.083265      -192.7454 
   5   1.0000      -7.074077      -192.4954 
   6   1.0000      -1.011237       -27.5172 
   7   1.0000      -0.723666       -19.6920 
   8   1.0000      -0.449507       -12.2317 
   9   1.0000      -0.430239       -11.7074 
  10   1.0000      -0.397104       -10.8057 
  11   1.0000      -0.282475        -7.6865 
  12   1.0000      -0.243178        -6.6172 
  13   0.0000      -0.093828        -2.5532 
  14   0.0000      -0.005560        -0.1513 
  15   0.0000       0.021321         0.5802 
  16   0.0000       0.023085         0.6282 
  17   0.0000       0.027622         0.7516 
  18   0.0000       0.053088         1.4446 
  19   0.0000       0.056450         1.5361 
  20   0.0000       0.057588         1.5671 
  21   0.0000       0.096926         2.6375 
  22   0.0000       0.097019         2.6400 
  23   0.0000       0.112700         3.0667 
  24   0.0000       0.119291         3.2461 
  25   0.0000       0.122655         3.3376 
  26   0.0000       0.149998         4.0817 
  27   0.0000       0.157163         4.2766 
  28   0.0000       0.162611         4.4249 
  29   0.0000       0.174445         4.7469 
  30   0.0000       0.179121         4.8741 
  31   0.0000       0.183040         4.9808 
  32   0.0000       0.187267         5.0958 
  33   0.0000       0.192576         5.2403 
  34   0.0000       0.192715         5.2440 
  35   0.0000       0.264369         7.1939 
  36   0.0000       0.275421         7.4946 
  37   0.0000       0.275429         7.4948 
  38   0.0000       0.277655         7.5554 
  39   0.0000       0.277740         7.5577 
  40   0.0000       0.283488         7.7141 
  41   0.0000       0.286737         7.8025 
  42   0.0000       0.301662         8.2086 
  43   0.0000       0.312226         8.4961 
  44   0.0000       0.341356         9.2888 
  45   0.0000       0.362979         9.8772 
  46   0.0000       0.363140         9.8816 
  47   0.0000       0.378357        10.2956 
  48   0.0000       0.378359        10.2957 
  49   0.0000       0.396552        10.7907 
  50   0.0000       0.398438        10.8421 
  51   0.0000       0.401755        10.9323 
  52   0.0000       0.444903        12.1064 
  53   0.0000       0.456213        12.4142 
  54   0.0000       0.480434        13.0733 
  55   0.0000       0.484444        13.1824 
  56   0.0000       0.484586        13.1862 
  57   0.0000       0.485107        13.2004 
  58   0.0000       0.503154        13.6915 
  59   0.0000       0.503155        13.6915 
  60   0.0000       0.534510        14.5448 
  61   0.0000       0.546768        14.8783 
  62   0.0000       0.547245        14.8913 
  63   0.0000       0.562230        15.2991 
  64   0.0000       0.569328        15.4922 
  65   0.0000       0.591860        16.1053 
  66   0.0000       0.601775        16.3751 
  67   0.0000       0.601800        16.3758 
  68   0.0000       0.617245        16.7961 
  69   0.0000       0.625873        17.0309 
  70   0.0000       0.676618        18.4117 
  71   0.0000       0.676618        18.4117 
  72   0.0000       0.682127        18.5616 
  73   0.0000       0.691267        18.8103 
  74   0.0000       0.693374        18.8677 
  75   0.0000       0.716158        19.4877 
  76   0.0000       0.716175        19.4881 
  77   0.0000       0.723982        19.7006 
  78   0.0000       0.724767        19.7219 
  79   0.0000       0.780113        21.2280 
  80   0.0000       0.780113        21.2280 
  81   0.0000       0.782353        21.2889 
  82   0.0000       0.793478        21.5916 
  83   0.0000       0.796742        21.6804 
  84   0.0000       0.823860        22.4184 
  85   0.0000       0.823995        22.4220 
  86   0.0000       0.875260        23.8170 
  87   0.0000       0.875531        23.8244 
  88   0.0000       0.882972        24.0269 
  89   0.0000       0.886334        24.1184 
  90   0.0000       0.889688        24.2096 
  91   0.0000       0.889689        24.2097 
  92   0.0000       0.891659        24.2633 
  93   0.0000       0.925263        25.1777 
  94   0.0000       0.925410        25.1817 
  95   0.0000       0.930203        25.3121 
  96   0.0000       0.943868        25.6839 
  97   0.0000       0.943869        25.6840 
  98   0.0000       0.955304        25.9951 
  99   0.0000       0.955464        25.9995 
 100   0.0000       0.970733        26.4150 
 101   0.0000       0.970734        26.4150 
 102   0.0000       1.014248        27.5991 
 103   0.0000       1.020613        27.7723 
 104   0.0000       1.039181        28.2775 
 105   0.0000       1.084391        29.5078 
 106   0.0000       1.094014        29.7696 
 107   0.0000       1.101973        29.9862 
 108   0.0000       1.101973        29.9862 
 109   0.0000       1.119239        30.4561 
 110   0.0000       1.119324        30.4584 
 111   0.0000       1.165230        31.7075 
 112   0.0000       1.172486        31.9050 
 113   0.0000       1.178405        32.0660 
 114   0.0000       1.178605        32.0715 
 115   0.0000       1.262668        34.3589 
 116   0.0000       1.382699        37.6251 
 117   0.0000       1.382925        37.6313 
 118   0.0000       1.522498        41.4293 
 119   0.0000       1.534573        41.7578 
 120   0.0000       1.534592        41.7584 
 121   0.0000       1.575264        42.8651 
 122   0.0000       1.591323        43.3021 
 123   0.0000       1.617899        44.0253 
 124   0.0000       1.640603        44.6431 
 125   0.0000       1.709072        46.5062 
 126   0.0000       1.709440        46.5162 
 127   0.0000       1.741674        47.3934 
 128   0.0000       1.859399        50.5968 
 129   0.0000       1.865080        50.7514 
 130   0.0000       1.876272        51.0560 
 131   0.0000       1.981870        53.9294 
 132   0.0000       1.989466        54.1361 
 133   0.0000       1.989557        54.1386 
 134   0.0000       2.011867        54.7457 
 135   0.0000       2.031437        55.2782 
 136   0.0000       2.156084        58.6700 
 137   0.0000       2.156184        58.6728 
 138   0.0000       2.208997        60.1099 
 139   0.0000       2.209168        60.1145 
 140   0.0000       2.228560        60.6422 
 141   0.0000       2.243845        61.0581 
 142   0.0000       2.305481        62.7353 
 143   0.0000       2.622747        71.3686 
 144   0.0000       2.638978        71.8103 
 145   0.0000       2.669995        72.6543 
 146   0.0000       2.824135        76.8486 
 147   0.0000       2.824137        76.8487 
 148   0.0000       2.851028        77.5804 
 149   0.0000       2.851030        77.5805 
 150   0.0000       2.867511        78.0289 
 151   0.0000       3.126222        85.0688 
 152   0.0000       3.126378        85.0731 
 153   0.0000       3.601969        98.0146 
 154   0.0000       3.602257        98.0224 
 155   0.0000       3.615539        98.3838 
 156   0.0000       3.630632        98.7945 
 157   0.0000       3.634623        98.9031 
 158   0.0000       3.637703        98.9869 
 159   0.0000       3.698243       100.6343 
 160   0.0000       3.738653       101.7339 
 161   0.0000       3.928448       106.8985 
 162   0.0000       3.936039       107.1051 
 163   0.0000       3.950229       107.4912 
 164   0.0000       4.017700       109.3272 
 165   0.0000       4.017753       109.3286 
 166   0.0000       4.083717       111.1236 
 167   0.0000       4.110200       111.8442 
 168   0.0000       4.267561       116.1262 
 169   0.0000       4.304238       117.1243 
 170   0.0000       4.348146       118.3191 
 171   0.0000       4.410173       120.0069 
 172   0.0000       4.769369       129.7811 
 173   0.0000       4.776104       129.9644 
 174   0.0000       4.788788       130.3096 
 175   0.0000       4.945943       134.5860 
 176   0.0000       4.946313       134.5960 
 177   0.0000       5.126227       139.4917 
 178   0.0000       5.126355       139.4952 
 179   0.0000       5.249267       142.8398 
 180   0.0000       5.277402       143.6054 
 181   0.0000       5.290622       143.9651 
 182   0.0000       5.384436       146.5179 
 183   0.0000       5.384437       146.5180 
 184   0.0000       5.577413       151.7691 
 185   0.0000       5.577415       151.7692 
 186   0.0000       5.612806       152.7322 
 187   0.0000       5.612806       152.7322 
 188   0.0000       5.702882       155.1833 
 189   0.0000       5.703151       155.1906 
 190   0.0000       5.747580       156.3996 
 191   0.0000       5.747625       156.4008 
 192   0.0000       5.827291       158.5687 
 193   0.0000       5.848784       159.1535 
 194   0.0000       5.864629       159.5847 
 195   0.0000       5.927565       161.2973 
 196   0.0000       5.927565       161.2973 
 197   0.0000       6.306126       171.5984 
 198   0.0000       6.306130       171.5985 
 199   0.0000       6.378944       173.5799 
 200   0.0000       6.585761       179.2077 
 201   0.0000       6.610080       179.8694 
 202   0.0000       7.133447       194.1110 
 203   0.0000       7.191043       195.6782 
 204   0.0000       7.191086       195.6794 
 205   0.0000       7.891404       214.7360 
 206   0.0000       7.918429       215.4714 
 207   0.0000       8.263492       224.8610 
 208   0.0000       9.028543       245.6791 
 209   0.0000       9.028547       245.6793 
 210   0.0000       9.056242       246.4329 
 211   0.0000       9.056243       246.4329 
 212   0.0000       9.238919       251.4038 
 213   0.0000       9.239584       251.4219 
 214   0.0000       9.289830       252.7891 
 215   0.0000       9.289927       252.7918 
 216   0.0000       9.488637       258.1989 
 217   0.0000       9.528382       259.2805 
 218   0.0000       9.717018       264.4135 
 219   0.0000       9.735092       264.9053 
 220   0.0000       9.740829       265.0614 
 221   0.0000      10.146581       276.1025 
 222   0.0000      10.633040       289.3397 
 223   0.0000      10.792310       293.6737 
 224   0.0000      10.842624       295.0428 
 225   0.0000      11.522063       313.5313 
 226   0.0000      11.972759       325.7953 
 227   0.0000      11.972793       325.7963 
 228   0.0000      11.982858       326.0702 
 229   0.0000      11.982899       326.0713 
 230   0.0000      12.050111       327.9002 
 231   0.0000      12.050426       327.9088 
 232   0.0000      12.150734       330.6383 
 233   0.0000      12.179104       331.4103 
 234   0.0000      12.228974       332.7673 
 235   0.0000      12.234179       332.9089 
 236   0.0000      12.306356       334.8730 
 237   0.0000      12.582272       342.3810 
 238   0.0000      12.582949       342.3995 
 239   0.0000      12.583226       342.4070 
 240   0.0000      12.583567       342.4163 
 241   0.0000      12.677810       344.9807 
 242   0.0000      12.707189       345.7802 
 243   0.0000      12.855856       349.8256 
 244   0.0000      12.855858       349.8257 
 245   0.0000      12.957696       352.5968 
 246   0.0000      12.958121       352.6084 
 247   0.0000      13.106621       356.6493 
 248   0.0000      13.791024       375.2729 
 249   0.0000      13.817763       376.0004 
 250   0.0000      14.803652       402.8279 
 251   0.0000      16.905236       460.0148 
 252   0.0000      16.905782       460.0297 
 253   0.0000      16.977266       461.9749 
 254   0.0000      16.977298       461.9758 
 255   0.0000      17.401875       473.5291 
 256   0.0000      17.403095       473.5623 
 257   0.0000      17.531427       477.0544 
 258   0.0000      17.540322       477.2964 
 259   0.0000      17.540356       477.2973 
 260   0.0000      17.549147       477.5366 
 261   0.0000      17.910080       487.3580 
 262   0.0000      18.243087       496.4196 
 263   0.0000      18.276280       497.3229 
 264   0.0000      19.154723       521.2265 
 265   0.0000      22.820603       620.9802 
 266   0.0000      22.821237       620.9974 
 267   0.0000      23.001683       625.9076 
 268   0.0000      23.042764       627.0255 
 269   0.0000      23.782875       647.1649 
 270   0.0000      29.486735       802.3749 
 271   0.0000      31.597919       859.8231 
 272   0.0000      31.640143       860.9721 
 273   0.0000      32.520420       884.9256 
 274   0.0000      40.314144      1097.0036 
 275   0.0000      65.711274      1788.0947 
 276   0.0000      65.711315      1788.0958 
 277   0.0000      65.788557      1790.1976 
 278   0.0000      65.795011      1790.3733 
 279   0.0000      66.081787      1798.1768 
 280   0.0000      66.435569      1807.8037 
 281   0.0000      66.436080      1807.8176 
 282   0.0000      66.557429      1811.1197 
 283   0.0000      66.587629      1811.9415 
 284   0.0000      67.190882      1828.3569 
 285   0.0000     142.039247      3865.0844 

                 SPIN DOWN ORBITALS
  NO   OCC          E(Eh)            E(eV) 
   0   1.0000    -100.745708     -2741.4301 
   1   1.0000     -18.824325      -512.2359 
   2   1.0000      -9.263191      -252.0642 
   3   1.0000      -7.088052      -192.8757 
   4   1.0000      -7.077035      -192.5759 
   5   1.0000      -7.072850      -192.4620 
   6   1.0000      -0.987039       -26.8587 
   7   1.0000      -0.698897       -19.0180 
   8   1.0000      -0.434299       -11.8179 
   9   1.0000      -0.389813       -10.6074 
  10   1.0000      -0.387054       -10.5323 
  11   1.0000      -0.231310        -6.2943 
  12   0.0000      -0.219244        -5.9659 
  13   0.0000      -0.082740        -2.2515 
  14   0.0000      -0.002209        -0.0601 
  15   0.0000       0.023367         0.6359 
  16   0.0000       0.024545         0.6679 
  17   0.0000       0.029244         0.7958 
  18   0.0000       0.054146         1.4734 
  19   0.0000       0.057633         1.5683 
  20   0.0000       0.059538         1.6201 
  21   0.0000       0.101875         2.7721 
  22   0.0000       0.102363         2.7854 
  23   0.0000       0.115597         3.1456 
  24   0.0000       0.123377         3.3573 
  25   0.0000       0.124284         3.3819 
  26   0.0000       0.152430         4.1478 
  27   0.0000       0.163165         4.4400 
  28   0.0000       0.164542         4.4774 
  29   0.0000       0.176304         4.7975 
  30   0.0000       0.181005         4.9254 
  31   0.0000       0.188254         5.1227 
  32   0.0000       0.191190         5.2026 
  33   0.0000       0.194589         5.2950 
  34   0.0000       0.195202         5.3117 
  35   0.0000       0.266467         7.2509 
  36   0.0000       0.278649         7.5824 
  37   0.0000       0.278715         7.5842 
  38   0.0000       0.286691         7.8013 
  39   0.0000       0.287054         7.8111 
  40   0.0000       0.287417         7.8210 
  41   0.0000       0.288891         7.8611 
  42   0.0000       0.313157         8.5214 
  43   0.0000       0.313573         8.5327 
  44   0.0000       0.346001         9.4152 
  45   0.0000       0.365921         9.9572 
  46   0.0000       0.366488         9.9726 
  47   0.0000       0.380426        10.3519 
  48   0.0000       0.380515        10.3543 
  49   0.0000       0.401800        10.9335 
  50   0.0000       0.402820        10.9613 
  51   0.0000       0.404034        10.9943 
  52   0.0000       0.447508        12.1773 
  53   0.0000       0.460990        12.5442 
  54   0.0000       0.485463        13.2101 
  55   0.0000       0.487941        13.2775 
  56   0.0000       0.488427        13.2908 
  57   0.0000       0.489082        13.3086 
  58   0.0000       0.506395        13.7797 
  59   0.0000       0.506408        13.7801 
  60   0.0000       0.538225        14.6458 
  61   0.0000       0.551368        15.0035 
  62   0.0000       0.552091        15.0232 
  63   0.0000       0.570919        15.5355 
  64   0.0000       0.573707        15.6114 
  65   0.0000       0.596476        16.2309 
  66   0.0000       0.605667        16.4810 
  67   0.0000       0.605770        16.4839 
  68   0.0000       0.626891        17.0586 
  69   0.0000       0.626922        17.0594 
  70   0.0000       0.679579        18.4923 
  71   0.0000       0.679595        18.4927 
  72   0.0000       0.692734        18.8503 
  73   0.0000       0.694287        18.8925 
  74   0.0000       0.699193        19.0260 
  75   0.0000       0.720792        19.6137 
  76   0.0000       0.720863        19.6157 
  77   0.0000       0.733516        19.9600 
  78   0.0000       0.734388        19.9837 
  79   0.0000       0.782993        21.3063 
  80   0.0000       0.782995        21.3064 
  81   0.0000       0.785270        21.3683 
  82   0.0000       0.796791        21.6818 
  83   0.0000       0.798403        21.7257 
  84   0.0000       0.827171        22.5085 
  85   0.0000       0.827778        22.5250 
  86   0.0000       0.879886        23.9429 
  87   0.0000       0.879966        23.9451 
  88   0.0000       0.891162        24.2497 
  89   0.0000       0.892890        24.2968 
  90   0.0000       0.893035        24.3007 
  91   0.0000       0.893173        24.3045 
  92   0.0000       0.893192        24.3050 
  93   0.0000       0.931808        25.3558 
  94   0.0000       0.932386        25.3715 
  95   0.0000       0.934041        25.4166 
  96   0.0000       0.946755        25.7625 
  97   0.0000       0.946830        25.7646 
  98   0.0000       0.959896        26.1201 
  99   0.0000       0.960463        26.1355 
 100   0.0000       0.973546        26.4915 
 101   0.0000       0.973547        26.4916 
 102   0.0000       1.020933        27.7810 
 103   0.0000       1.022315        27.8186 
 104   0.0000       1.042329        28.3632 
 105   0.0000       1.094975        29.7958 
 106   0.0000       1.095325        29.8053 
 107   0.0000       1.104915        30.0663 
 108   0.0000       1.104931        30.0667 
 109   0.0000       1.122366        30.5411 
 110   0.0000       1.122873        30.5549 
 111   0.0000       1.169054        31.8116 
 112   0.0000       1.178874        32.0788 
 113   0.0000       1.180117        32.1126 
 114   0.0000       1.182008        32.1641 
 115   0.0000       1.275082        34.6968 
 116   0.0000       1.391730        37.8709 
 117   0.0000       1.392746        37.8985 
 118   0.0000       1.533198        41.7204 
 119   0.0000       1.548111        42.1263 
 120   0.0000       1.548206        42.1288 
 121   0.0000       1.592338        43.3297 
 122   0.0000       1.593001        43.3477 
 123   0.0000       1.646224        44.7960 
 124   0.0000       1.652922        44.9783 
 125   0.0000       1.730210        47.0814 
 126   0.0000       1.732628        47.1472 
 127   0.0000       1.746629        47.5282 
 128   0.0000       1.869956        50.8841 
 129   0.0000       1.879634        51.1475 
 130   0.0000       1.881984        51.2114 
 131   0.0000       1.990208        54.1563 
 132   0.0000       2.007561        54.6285 
 133   0.0000       2.007877        54.6371 
 134   0.0000       2.033700        55.3398 
 135   0.0000       2.035316        55.3838 
 136   0.0000       2.169934        59.0469 
 137   0.0000       2.171287        59.0837 
 138   0.0000       2.221650        60.4542 
 139   0.0000       2.222535        60.4783 
 140   0.0000       2.242294        61.0159 
 141   0.0000       2.244608        61.0789 
 142   0.0000       2.312989        62.9396 
 143   0.0000       2.640552        71.8531 
 144   0.0000       2.640823        71.8604 
 145   0.0000       2.680392        72.9372 
 146   0.0000       2.842829        77.3573 
 147   0.0000       2.842842        77.3577 
 148   0.0000       2.862300        77.8871 
 149   0.0000       2.862388        77.8895 
 150   0.0000       2.878747        78.3347 
 151   0.0000       3.135684        85.3263 
 152   0.0000       3.136728        85.3547 
 153   0.0000       3.615856        98.3924 
 154   0.0000       3.616844        98.4193 
 155   0.0000       3.634491        98.8995 
 156   0.0000       3.635364        98.9233 
 157   0.0000       3.654792        99.4520 
 158   0.0000       3.654894        99.4547 
 159   0.0000       3.721364       101.2635 
 160   0.0000       3.747632       101.9783 
 161   0.0000       3.943487       107.3077 
 162   0.0000       3.951858       107.5355 
 163   0.0000       3.954481       107.6069 
 164   0.0000       4.055910       110.3669 
 165   0.0000       4.060855       110.5015 
 166   0.0000       4.114312       111.9561 
 167   0.0000       4.117116       112.0324 
 168   0.0000       4.314239       117.3964 
 169   0.0000       4.325233       117.6956 
 170   0.0000       4.362221       118.7021 
 171   0.0000       4.417233       120.1990 
 172   0.0000       4.784382       130.1897 
 173   0.0000       4.790044       130.3437 
 174   0.0000       4.792106       130.3998 
 175   0.0000       4.966945       135.1574 
 176   0.0000       4.968970       135.2126 
 177   0.0000       5.165685       140.5654 
 178   0.0000       5.166369       140.5840 
 179   0.0000       5.281323       143.7121 
 180   0.0000       5.283622       143.7747 
 181   0.0000       5.311036       144.5206 
 182   0.0000       5.403388       147.0337 
 183   0.0000       5.403618       147.0399 
 184   0.0000       5.595242       152.2543 
 185   0.0000       5.595261       152.2548 
 186   0.0000       5.635769       153.3571 
 187   0.0000       5.635770       153.3571 
 188   0.0000       5.715699       155.5321 
 189   0.0000       5.716647       155.5579 
 190   0.0000       5.763817       156.8414 
 191   0.0000       5.765480       156.8867 
 192   0.0000       5.836408       158.8167 
 193   0.0000       5.861787       159.5073 
 194   0.0000       5.865444       159.6068 
 195   0.0000       5.966792       162.3647 
 196   0.0000       5.966949       162.3689 
 197   0.0000       6.330678       172.2665 
 198   0.0000       6.330977       172.2746 
 199   0.0000       6.389957       173.8796 
 200   0.0000       6.612399       179.9325 
 201   0.0000       6.613369       179.9589 
 202   0.0000       7.146509       194.4664 
 203   0.0000       7.209347       196.1763 
 204   0.0000       7.211289       196.2291 
 205   0.0000       7.922321       215.5773 
 206   0.0000       7.923928       215.6210 
 207   0.0000       8.278040       225.2569 
 208   0.0000       9.051743       246.3104 
 209   0.0000       9.051745       246.3105 
 210   0.0000       9.072089       246.8641 
 211   0.0000       9.072148       246.8657 
 212   0.0000       9.283280       252.6109 
 213   0.0000       9.286212       252.6907 
 214   0.0000       9.318010       253.5560 
 215   0.0000       9.324059       253.7206 
 216   0.0000       9.536515       259.5018 
 217   0.0000       9.551873       259.9197 
 218   0.0000       9.734797       264.8973 
 219   0.0000       9.736518       264.9441 
 220   0.0000       9.756768       265.4952 
 221   0.0000      10.166440       276.6429 
 222   0.0000      10.667995       290.2909 
 223   0.0000      10.857308       295.4424 
 224   0.0000      10.872894       295.8665 
 225   0.0000      11.544419       314.1396 
 226   0.0000      12.015833       326.9674 
 227   0.0000      12.015941       326.9704 
 228   0.0000      12.038307       327.5790 
 229   0.0000      12.038354       327.5803 
 230   0.0000      12.084382       328.8328 
 231   0.0000      12.084803       328.8442 
 232   0.0000      12.181794       331.4835 
 233   0.0000      12.183907       331.5410 
 234   0.0000      12.257765       333.5507 
 235   0.0000      12.260323       333.6204 
 236   0.0000      12.320308       335.2526 
 237   0.0000      12.618988       343.3801 
 238   0.0000      12.623060       343.4909 
 239   0.0000      12.653343       344.3150 
 240   0.0000      12.654758       344.3535 
 241   0.0000      12.710475       345.8696 
 242   0.0000      12.718028       346.0751 
 243   0.0000      12.861872       349.9893 
 244   0.0000      12.861952       349.9915 
 245   0.0000      12.973519       353.0274 
 246   0.0000      12.975179       353.0726 
 247   0.0000      13.125890       357.1736 
 248   0.0000      13.821766       376.1094 
 249   0.0000      13.825917       376.2223 
 250   0.0000      14.816593       403.1800 
 251   0.0000      16.978229       462.0011 
 252   0.0000      16.979254       462.0290 
 253   0.0000      17.032250       463.4711 
 254   0.0000      17.033288       463.4993 
 255   0.0000      17.441618       474.6106 
 256   0.0000      17.446133       474.7334 
 257   0.0000      17.548061       477.5070 
 258   0.0000      17.548341       477.5146 
 259   0.0000      17.551021       477.5876 
 260   0.0000      17.551981       477.6137 
 261   0.0000      17.928023       487.8463 
 262   0.0000      18.281318       497.4600 
 263   0.0000      18.289771       497.6900 
 264   0.0000      19.171328       521.6783 
 265   0.0000      22.890351       622.8781 
 266   0.0000      22.896455       623.0442 
 267   0.0000      23.050648       627.2400 
 268   0.0000      23.075563       627.9180 
 269   0.0000      23.809017       647.8763 
 270   0.0000      29.519828       803.2753 
 271   0.0000      31.655012       861.3767 
 272   0.0000      31.675475       861.9335 
 273   0.0000      32.539358       885.4409 
 274   0.0000      40.321318      1097.1989 
 275   0.0000      65.718579      1788.2934 
 276   0.0000      65.718641      1788.2951 
 277   0.0000      65.795692      1790.3918 
 278   0.0000      65.795907      1790.3977 
 279   0.0000      66.086785      1798.3129 
 280   0.0000      66.483039      1809.0955 
 281   0.0000      66.486980      1809.2027 
 282   0.0000      66.594677      1812.1333 
 283   0.0000      66.608523      1812.5101 
 284   0.0000      67.209949      1828.8757 
 285   0.0000     142.057350      3865.5770 

                    ********************************
                    * MULLIKEN POPULATION ANALYSIS *
                    ********************************

--------------------------------------------
MULLIKEN ATOMIC CHARGES AND SPIN POPULATIONS
--------------------------------------------
   0 O :   -0.133936    0.647067
   1 Cl:    0.133936    0.352933
Sum of atomic charges         :    0.0000000
Sum of atomic spin populations:    1.0000000

-----------------------------------------------------
MULLIKEN REDUCED ORBITAL CHARGES AND SPIN POPULATIONS
-----------------------------------------------------
CHARGE
  0 O s       :     3.866920  s :     3.866920
      pz      :     1.027841  p :     4.211634
      px      :     1.287709
      py      :     1.896084
      dz2     :     0.007519  d :     0.048056
      dxz     :     0.020933
      dyz     :     0.019445
      dx2y2   :     0.000159
      dxy     :     0.000000
      f0      :     0.001467  f :     0.006544
      f+1     :     0.003424
      f-1     :     0.001569
      f+2     :     0.000013
      f-2     :     0.000000
      f+3     :     0.000036
      f-3     :     0.000037
      g0      :     0.000183  g :     0.000560
      g+1     :     0.000404
      g-1     :    -0.000036
      g+2     :     0.000000
      g-2     :     0.000000
      g+3     :     0.000004
      g-3     :     0.000005
      g+4     :     0.000000
      g-4     :     0.000000
      h0      :     0.000021  h :     0.000221
      h+1     :     0.000121
      h-1     :     0.000077
      h+2     :     0.000000
      h-2     :     0.000000
      h+3     :     0.000001
      h-3     :     0.000001
      h+4     :     0.000000
      h-4     :     0.000000
      h+5     :     0.000000
      h-5     :     0.000000
  1 Cls       :     6.021574  s :     6.021574
      pz      :     3.020772  p :    10.609602
      px      :     3.623006
      py      :     3.965824
      dz2     :     0.046503  d :     0.205161
      dxz     :     0.055266
      dyz     :     0.103181
      dx2y2   :     0.000211
      dxy     :     0.000000
      f0      :     0.006151  f :     0.027025
      f+1     :     0.008281
      f-1     :     0.012497
      f+2     :     0.000021
      f-2     :     0.000000
      f+3     :     0.000037
      f-3     :     0.000038
      g0      :     0.000618  g :     0.002797
      g+1     :     0.000790
      g-1     :     0.001375
      g+2     :     0.000002
      g-2     :     0.000000
      g+3     :     0.000006
      g-3     :     0.000006
      g+4     :     0.000000
      g-4     :     0.000000
      h0      :     0.000025  h :    -0.000095
      h+1     :    -0.000017
      h-1     :    -0.000105
      h+2     :     0.000000
      h-2     :     0.000000
      h+3     :     0.000001
      h-3     :     0.000001
      h+4     :     0.000000
      h-4     :     0.000000
      h+5     :     0.000000
      h-5     :     0.000000

SPIN
  0 O s       :     0.001114  s :     0.001114
      pz      :     0.011106  p :     0.644062
      px      :     0.628141
      py      :     0.004815
      dz2     :     0.000591  d :     0.000869
      dxz     :    -0.000342
      dyz     :     0.000480
      dx2y2   :     0.000140
      dxy     :     0.000000
      f0      :    -0.000108  f :     0.000359
      f+1     :    -0.000084
      f-1     :     0.000465
      f+2     :     0.000015
      f-2     :     0.000000
      f+3     :     0.000035
      f-3     :     0.000036
      g0      :     0.000040  g :     0.000480
      g+1     :     0.000223
      g-1     :     0.000208
      g+2     :     0.000002
      g-2     :     0.000000
      g+3     :     0.000003
      g-3     :     0.000004
      g+4     :    -0.000000
      g-4     :    -0.000000
      h0      :     0.000013  h :     0.000182
      h+1     :     0.000109
      h-1     :     0.000057
      h+2     :     0.000001
      h-2     :     0.000000
      h+3     :     0.000001
      h-3     :     0.000001
      h+4     :    -0.000000
      h-4     :    -0.000000
      h+5     :    -0.000000
      h-5     :    -0.000000
  1 Cls       :     0.000431  s :     0.000431
      pz      :    -0.013457  p :     0.324976
      px      :     0.340285
      py      :    -0.001852
      dz2     :    -0.000210  d :     0.025147
      dxz     :     0.028809
      dyz     :    -0.003636
      dx2y2   :     0.000184
      dxy     :     0.000000
      f0      :    -0.000112  f :     0.002250
      f+1     :     0.002719
      f-1     :    -0.000441
      f+2     :     0.000011
      f-2     :     0.000000
      f+3     :     0.000037
      f-3     :     0.000037
      g0      :     0.000187  g :     0.000149
      g+1     :     0.000136
      g-1     :    -0.000177
      g+2     :    -0.000001
      g-2     :    -0.000000
      g+3     :     0.000002
      g-3     :     0.000003
      g+4     :    -0.000000
      g-4     :    -0.000000
      h0      :     0.000052  h :    -0.000021
      h+1     :    -0.000073
      h-1     :    -0.000001
      h+2     :     0.000000
      h-2     :     0.000000
      h+3     :     0.000001
      h-3     :     0.000001
      h+4     :    -0.000000
      h-4     :    -0.000000
      h+5     :    -0.000000
      h-5     :    -0.000000


                     *******************************
                     * LOEWDIN POPULATION ANALYSIS *
                     *******************************

-------------------------------------------
LOEWDIN ATOMIC CHARGES AND SPIN POPULATIONS
-------------------------------------------
   0 O :   -0.877787    0.641656
   1 Cl:    0.877787    0.358344

----------------------------------------------------
LOEWDIN REDUCED ORBITAL CHARGES AND SPIN POPULATIONS
----------------------------------------------------
CHARGE
  0 O s       :     3.529947  s :     3.529947
      pz      :     1.356518  p :     4.265109
      px      :     1.200731
      py      :     1.707860
      dz2     :     0.225420  d :     0.560696
      dxz     :     0.147580
      dyz     :     0.187540
      dx2y2   :     0.000155
      dxy     :     0.000000
      f0      :     0.100224  f :     0.313627
      f+1     :     0.091014
      f-1     :     0.122300
      f+2     :     0.000018
      f-2     :     0.000000
      f+3     :     0.000035
      f-3     :     0.000036
      g0      :     0.040126  g :     0.145429
      g+1     :     0.044445
      g-1     :     0.060845
      g+2     :     0.000007
      g-2     :     0.000000
      g+3     :     0.000003
      g-3     :     0.000003
      g+4     :     0.000000
      g-4     :     0.000000
      h0      :     0.015178  h :     0.062980
      h+1     :     0.020774
      h-1     :     0.027017
      h+2     :     0.000006
      h-2     :     0.000000
      h+3     :     0.000002
      h-3     :     0.000002
      h+4     :     0.000000
      h-4     :     0.000000
      h+5     :     0.000000
      h-5     :     0.000000
  1 Cls       :     5.346231  s :     5.346231
      pz      :     3.016259  p :     9.871115
      px      :     3.303537
      py      :     3.551320
      dz2     :     0.216897  d :     0.528041
      dxz     :     0.109320
      dyz     :     0.201634
      dx2y2   :     0.000190
      dxy     :     0.000000
      f0      :     0.094744  f :     0.226434
      f+1     :     0.047931
      f-1     :     0.083655
      f+2     :     0.000022
      f-2     :     0.000000
      f+3     :     0.000040
      f-3     :     0.000041
      g0      :     0.041226  g :     0.105787
      g+1     :     0.023508
      g-1     :     0.041041
      g+2     :     0.000004
      g-2     :     0.000000
      g+3     :     0.000004
      g-3     :     0.000004
      g+4     :     0.000000
      g-4     :     0.000000
      h0      :     0.016826  h :     0.044605
      h+1     :     0.011076
      h-1     :     0.016699
      h+2     :     0.000002
      h-2     :     0.000000
      h+3     :     0.000001
      h-3     :     0.000001
      h+4     :     0.000000
      h-4     :     0.000000
      h+5     :     0.000000
      h-5     :     0.000000

SPIN
  0 O s       :     0.004870  s :     0.004870
      pz      :     0.009615  p :     0.552899
      px      :     0.537602
      py      :     0.005682
      dz2     :    -0.000395  d :     0.031777
      dxz     :     0.033300
      dyz     :    -0.001262
      dx2y2   :     0.000134
      dxy     :     0.000000
      f0      :    -0.000523  f :     0.028992
      f+1     :     0.029681
      f-1     :    -0.000251
      f+2     :     0.000016
      f-2     :     0.000000
      f+3     :     0.000034
      f-3     :     0.000035
      g0      :    -0.000249  g :     0.016431
      g+1     :     0.016595
      g-1     :     0.000076
      g+2     :     0.000005
      g-2     :     0.000000
      g+3     :     0.000002
      g-3     :     0.000002
      g+4     :    -0.000000
      g-4     :    -0.000000
      h0      :    -0.000202  h :     0.006687
      h+1     :     0.006781
      h-1     :     0.000097
      h+2     :     0.000006
      h-2     :     0.000000
      h+3     :     0.000002
      h-3     :     0.000002
      h+4     :    -0.000000
      h-4     :    -0.000000
      h+5     :    -0.000000
      h-5     :    -0.000000
  1 Cls       :    -0.000023  s :    -0.000023
      pz      :    -0.013841  p :     0.240141
      px      :     0.253315
      py      :     0.000667
      dz2     :    -0.000036  d :     0.061771
      dxz     :     0.066329
      dyz     :    -0.004697
      dx2y2   :     0.000175
      dxy     :     0.000000
      f0      :     0.000086  f :     0.033078
      f+1     :     0.033281
      f-1     :    -0.000382
      f+2     :     0.000014
      f-2     :     0.000000
      f+3     :     0.000040
      f-3     :     0.000040
      g0      :     0.000270  g :     0.017218
      g+1     :     0.017042
      g-1     :    -0.000097
      g+2     :     0.000001
      g-2     :     0.000000
      g+3     :     0.000001
      g-3     :     0.000001
      g+4     :    -0.000000
      g-4     :    -0.000000
      h0      :     0.000074  h :     0.006159
      h+1     :     0.005995
      h-1     :     0.000086
      h+2     :     0.000002
      h-2     :     0.000000
      h+3     :     0.000001
      h-3     :     0.000001
      h+4     :    -0.000000
      h-4     :    -0.000000
      h+5     :    -0.000000
      h-5     :    -0.000000


                      *****************************
                      * MAYER POPULATION ANALYSIS *
                      *****************************

  NA   - Mulliken gross atomic population
  ZA   - Total nuclear charge
  QA   - Mulliken gross atomic charge
  VA   - Mayer's total valence
  BVA  - Mayer's bonded valence
  FA   - Mayer's free valence

  ATOM       NA         ZA         QA         VA         BVA        FA
  0 O      8.1339     8.0000    -0.1339     2.0274     1.6219     0.4055
  1 Cl    16.8661    17.0000     0.1339     1.7864     1.6219     0.1645

  Mayer bond orders larger than 0.1
B(  0-O ,  1-Cl) :   1.6219 

-------
TIMINGS
-------

Total SCF time: 0 days 0 hours 7 min 3 sec 

Total time                  ....     423.860 sec
Sum of individual times     ....     423.143 sec  ( 99.8%)

Fock matrix formation       ....     421.191 sec  ( 99.4%)
  XC integration            ....       7.541 sec  (  1.8% of F)
    Basis function eval.    ....       0.610 sec  (  8.1% of XC)
    Density eval.           ....       1.421 sec  ( 18.8% of XC)
    XC-Functional eval.     ....       0.107 sec  (  1.4% of XC)
    XC-Potential eval.      ....       4.665 sec  ( 61.9% of XC)
Diagonalization             ....       0.727 sec  (  0.2%)
Density matrix formation    ....       0.015 sec  (  0.0%)
Population analysis         ....       0.108 sec  (  0.0%)
Initial guess               ....       0.363 sec  (  0.1%)
Orbital Transformation      ....       0.000 sec  (  0.0%)
Orbital Orthonormalization  ....       0.000 sec  (  0.0%)
DIIS solution               ....       0.478 sec  (  0.1%)
Grid generation             ....       0.260 sec  (  0.1%)

-------------------------   --------------------
FINAL SINGLE POINT ENERGY      -535.119896816343
-------------------------   --------------------


                            ***************************************
                            *     ORCA property calculations      *
                            ***************************************

                                    ---------------------
                                    Active property flags
                                    ---------------------
   (+) Dipole Moment


------------------------------------------------------------------------------
                       ORCA ELECTRIC PROPERTIES CALCULATION
------------------------------------------------------------------------------

Dipole Moment Calculation                       ... on
Quadrupole Moment Calculation                   ... off
Polarizability Calculation                      ... off
GBWName                                         ... ocl_pbe_00.gbw
Electron density file                           ... ocl_pbe_00.scfp.tmp
The origin for moment calculation is the CENTER OF MASS  = ( 0.000000,  0.000000  2.043801)

-------------
DIPOLE MOMENT
-------------
                                X             Y             Z
Electronic contribution:      0.00000      -0.00000       1.19972
Nuclear contribution   :      0.00000       0.00000      -0.67108
                        -----------------------------------------
Total Dipole Moment    :      0.00000      -0.00000       0.52863
                        -----------------------------------------
Magnitude (a.u.)       :      0.52863
Magnitude (Debye)      :      1.34368



--------------------
Rotational spectrum 
--------------------
 
Rotational constants in cm-1:     0.000000     0.620691     0.620691 
Rotational constants in MHz :     0.000000 18607.843970 18607.843970 

 Dipole components along the rotational axes: 
x,y,z [a.u.] :     0.528635    -0.000000     0.000000 
x,y,z [Debye]:     1.343682    -0.000000     0.000000 

 

Timings for individual modules:

Sum of individual times         ...      425.764 sec (=   7.096 min)
GTO integral calculation        ...        1.596 sec (=   0.027 min)   0.4 %
SCF iterations                  ...      424.167 sec (=   7.069 min)  99.6 %
                             ****ORCA TERMINATED NORMALLY****
TOTAL RUN TIME: 0 days 0 hours 7 minutes 6 seconds 465 msec
