
                                 *****************
                                 * O   R   C   A *
                                 *****************

           --- An Ab Initio, DFT and Semiempirical electronic structure package ---

                  #######################################################
                  #                        -***-                        #
                  #          Department of theory and spectroscopy      #
                  #               Directorship: Frank Neese             #
                  #        Max Planck Institute fuer Kohlenforschung    #
                  #                Kaiser Wilhelm Platz 1               #
                  #                 D-45470 Muelheim/Ruhr               #
                  #                      Germany                        #
                  #                                                     #
                  #                  All rights reserved                #
                  #                        -***-                        #
                  #######################################################


                         Program Version 4.1.2  - RELEASE  -


 With contributions from (in alphabetic order):
   Daniel Aravena         : Magnetic Properties
   Michael Atanasov       : Ab Initio Ligand Field Theory
   Alexander A. Auer      : GIAO ZORA
   Ute Becker             : Parallelization
   Giovanni Bistoni       : ED, Open-shell LED
   Martin Brehm           : Molecular dynamics
   Dmytro Bykov           : SCF Hessian
   Vijay G. Chilkuri      : MRCI spin determinant printing
   Dipayan Datta          : RHF DLPNO-CCSD density
   Achintya Kumar Dutta   : EOM-CC, STEOM-CC
   Dmitry Ganyushin       : Spin-Orbit,Spin-Spin,Magnetic field MRCI
   Miquel Garcia          : C-PCM Hessian
   Yang Guo               : DLPNO-NEVPT2, CIM, IAO-localization
   Andreas Hansen         : Spin unrestricted coupled pair/coupled cluster methods
   Benjamin Helmich-Paris : CASSCF linear response (MC-RPA)
   Lee Huntington         : MR-EOM, pCC
   Robert Izsak           : Overlap fitted RIJCOSX, COSX-SCS-MP3, EOM
   Christian Kollmar      : KDIIS, OOCD, Brueckner-CCSD(T), CCSD density
   Simone Kossmann        : Meta GGA functionals, TD-DFT gradient, OOMP2, MP2 Hessian
   Martin Krupicka        : AUTO-CI
   Lucas Lang             : DCDCAS
   Dagmar Lenk            : GEPOL surface, SMD
   Dimitrios Liakos       : Extrapolation schemes; parallel MDCI
   Dimitrios Manganas     : ROCIS; embedding schemes
   Dimitrios Pantazis     : SARC Basis sets
   Taras Petrenko         : DFT Hessian,TD-DFT gradient, ASA, ECA, R-Raman, ABS, FL, XAS/XES, NRVS
   Peter Pinski           : DLPNO-MP2, DLPNO-MP2 Gradient
   Christoph Reimann      : Effective Core Potentials
   Marius Retegan         : Local ZFS, SOC
   Christoph Riplinger    : Optimizer, TS searches, QM/MM, DLPNO-CCSD(T), (RO)-DLPNO pert. Triples
   Tobias Risthaus        : Range-separated hybrids, TD-DFT gradient, RPA, STAB
   Michael Roemelt        : Restricted open shell CIS
   Masaaki Saitow         : Open-shell DLPNO
   Barbara Sandhoefer     : DKH picture change effects
   Avijit Sen             : IP-ROCIS
   Kantharuban Sivalingam : CASSCF convergence, NEVPT2, FIC-MRCI
   Bernardo de Souza      : ESD, SOC TD-DFT
   Georgi Stoychev        : AutoAux, RI-MP2 NMR
   Willem Van den Heuvel  : Paramagnetic NMR
   Boris Wezisla          : Elementary symmetry handling
   Frank Wennmohs         : Technical directorship


 We gratefully acknowledge several colleagues who have allowed us to
 interface, adapt or use parts of their codes:
   Stefan Grimme, W. Hujo, H. Kruse,             : VdW corrections, initial TS optimization,
                  C. Bannwarth                     DFT functionals, gCP, sTDA/sTD-DF
   Ed Valeev                                     : LibInt (2-el integral package), F12 methods
   Garnet Chan, S. Sharma, J. Yang, R. Olivares  : DMRG
   Ulf Ekstrom                                   : XCFun DFT Library
   Mihaly Kallay                                 : mrcc  (arbitrary order and MRCC methods)
   Andreas Klamt, Michael Diedenhofen            : otool_cosmo (COSMO solvation model)
   Jiri Pittner, Ondrej Demel                    : Mk-CCSD
   Frank Weinhold                                : gennbo (NPA and NBO analysis)
   Christopher J. Cramer and Donald G. Truhlar   : smd solvation model
   Lars Goerigk                                  : TD-DFT with DH, B97 family of functionals
   V. Asgeirsson, H. Jonsson                     : NEB implementation
   FAccTs GmbH                                   : IRC, NEB, NEB-TS, Multilevel


 Your calculation uses the libint2 library for the computation of 2-el integrals
 For citations please refer to: http://libint.valeyev.net

 This ORCA versions uses:
   CBLAS   interface :  Fast vector & matrix operations
   LAPACKE interface :  Fast linear algebra routines
   SCALAPACK package :  Parallel linear algebra routines


----- Orbital basis set information -----
Your calculation utilizes the basis: aug-pc-4
   H, C-F              : F. Jensen, J. Chem. Phys. 115, 9113 (2001).
                         F. Jensen, J. Chem. Phys. 116, 7372 (2002).
                         F. Jensen, J. Chem. Phys. 117, 9234 (2002).
   Si-Cl               : F. Jensen, T. Helgaker, J. Chem. Phys. 121, 3463 (2004).
   He-B, Ne-Mg, Al, Ar : F. Jensen, J. Phys. Chem. A 111, 11198 (2007).
   K, Ca, Ga-Kr        : F. Jensen, J. Chem. Phys. 136, 094110 (2012).
   Sc-Zn               : F. Jensen, J. Chem. Phys. 138, 014107 (2013).

================================================================================
                                        WARNINGS
                       Please study these warnings very carefully!
================================================================================


INFO   : the flag for use of LIBINT has been found!

================================================================================
                                       INPUT FILE
================================================================================
NAME = oh_pbe_+0001_z.inp
|  1> !uks pbe nori aug-pc-4 grid5 nofinalgrid verytightscf
|  2> 
|  3> %maxcore 6000
|  4> 
|  5> %pal nprocs 4 end
|  6> 
|  7> %scf
|  8> 	efield 0.0, 0.0, 0.001
|  9> 	maxiter 200
| 10> end
| 11> 
| 12> * xyz 0 2
| 13> H 0 0 0
| 14> O 0 0 0.9697
| 15> *
| 16> 
| 17>                          ****END OF INPUT****
================================================================================

                       ****************************
                       * Single Point Calculation *
                       ****************************

---------------------------------
CARTESIAN COORDINATES (ANGSTROEM)
---------------------------------
  H      0.000000    0.000000    0.000000
  O      0.000000    0.000000    0.969700

----------------------------
CARTESIAN COORDINATES (A.U.)
----------------------------
  NO LB      ZA    FRAG     MASS         X           Y           Z
   0 H     1.0000    0     1.008    0.000000    0.000000    0.000000
   1 O     8.0000    0    15.999    0.000000    0.000000    1.832467

--------------------------------
INTERNAL COORDINATES (ANGSTROEM)
--------------------------------
 H      0   0   0     0.000000000000     0.00000000     0.00000000
 O      1   0   0     0.969700000000     0.00000000     0.00000000

---------------------------
INTERNAL COORDINATES (A.U.)
---------------------------
 H      0   0   0     0.000000000000     0.00000000     0.00000000
 O      1   0   0     1.832467432063     0.00000000     0.00000000

---------------------
BASIS SET INFORMATION
---------------------
There are 2 groups of distinct atoms

 Group   1 Type H   : 12s7p4d3f2g contracted to 8s7p4d3f2g pattern {51111111/1111111/1111/111/11}
 Group   2 Type O   : 27s12p7d4f3g2h contracted to 9s8p7d4f3g2h pattern {1191111111/51111111/1111111/1111/111/11}

Atom   0H    basis set group =>   1
Atom   1O    basis set group =>   2


           ************************************************************
           *        Program running with 4 parallel MPI-processes     *
           *              working on a common directory               *
           ************************************************************
------------------------------------------------------------------------------
                           ORCA GTO INTEGRAL CALCULATION
------------------------------------------------------------------------------

                         BASIS SET STATISTICS AND STARTUP INFO

 # of primitive gaussian shells          ...   83
 # of primitive gaussian functions       ...  267
 # of contracted shells                  ...   57
 # of contracted basis functions         ...  233
 Highest angular momentum                ...    5
 Maximum contraction depth               ...   11
 Integral package used                   ... LIBINT
 Integral threshhold            Thresh   ...  1.000e-12
 Primitive cut-off              TCut     ...  1.000e-14


------------------------------ INTEGRAL EVALUATION ----------------------------


 * One electron integrals 
 Pre-screening matrix                    ... done
 Shell pair data                         ... done (   0.000 sec)


An Electric Field will be added: 0.000e+00 0.000e+00 1.000e-03 au

  ... done adding electric field perturbation



           ************************************************************
           *        Program running with 4 parallel MPI-processes     *
           *              working on a common directory               *
           ************************************************************
-------------------------------------------------------------------------------
                                 ORCA SCF
-------------------------------------------------------------------------------

------------
SCF SETTINGS
------------
Hamiltonian:
 Density Functional     Method          .... DFT(GTOs)
 Exchange Functional    Exchange        .... PBE
   PBE kappa parameter   XKappa         ....  0.804000
   PBE mue parameter    XMuePBE         ....  0.219520
 Correlation Functional Correlation     .... PBE
   PBE beta parameter  CBetaPBE         ....  0.066725
 LDA part of GGA corr.  LDAOpt          .... PW91-LDA
 Gradients option       PostSCFGGA      .... off
   Density functional embedding theory  .... OFF
   NL short-range parameter             ....  6.400000


General Settings:
 Integral files         IntName         .... oh_pbe_+0001_z
 Hartree-Fock type      HFTyp           .... UHF
 Total Charge           Charge          ....    0
 Multiplicity           Mult            ....    2
 Number of Electrons    NEL             ....    9
 Basis Dimension        Dim             ....  233
 Nuclear Repulsion      ENuc            ....      4.3656983257 Eh

Convergence Acceleration:
 DIIS                   CNVDIIS         .... on
   Start iteration      DIISMaxIt       ....    12
   Startup error        DIISStart       ....  0.200000
   # of expansion vecs  DIISMaxEq       ....     5
   Bias factor          DIISBfac        ....   1.050
   Max. coefficient     DIISMaxC        ....  10.000
 Newton-Raphson         CNVNR           .... off
 SOSCF                  CNVSOSCF        .... off
 Level Shifting         CNVShift        .... on
   Level shift para.    LevelShift      ....    0.2500
   Turn off err/grad.   ShiftErr        ....    0.0010
 Zerner damping         CNVZerner       .... off
 Static damping         CNVDamp         .... on
   Fraction old density DampFac         ....    0.7000
   Max. Damping (<1)    DampMax         ....    0.9800
   Min. Damping (>=0)   DampMin         ....    0.0000
   Turn off err/grad.   DampErr         ....    0.1000
 Fernandez-Rico         CNVRico         .... off

SCF Procedure:
 Maximum # iterations   MaxIter         ....   200
 SCF integral mode      SCFMode         .... Direct
   Integral package                     .... LIBINT
 Reset frequency        DirectResetFreq ....    20
 Integral Threshold     Thresh          ....  1.000e-12 Eh
 Primitive CutOff       TCut            ....  1.000e-14 Eh

Convergence Tolerance:
 Convergence Check Mode ConvCheckMode   .... Total+1el-Energy
 Convergence forced     ConvForced      .... 0
 Energy Change          TolE            ....  1.000e-09 Eh
 1-El. energy change                    ....  1.000e-06 Eh
 DIIS Error             TolErr          ....  1.000e-08


Diagonalization of the overlap matrix:
Smallest eigenvalue                        ... 2.891e-06
Time for diagonalization                   ...    0.009 sec
Threshold for overlap eigenvalues          ... 1.000e-08
Number of eigenvalues below threshold      ... 0
Time for construction of square roots      ...    0.009 sec
Total time needed                          ...    0.017 sec

-------------------
DFT GRID GENERATION
-------------------

General Integration Accuracy     IntAcc      ...  5.010
Radial Grid Type                 RadialGrid  ... Gauss-Chebyshev
Angular Grid (max. acc.)         AngularGrid ... Lebedev-434
Angular grid pruning method      GridPruning ... 3 (G Style)
Weight generation scheme         WeightScheme... Becke
Basis function cutoff            BFCut       ...    1.0000e-12
Integration weight cutoff        WCut        ...    1.0000e-14
Grids for H and He will be reduced by one unit

# of grid points (after initial pruning)     ...  17534 (   0.0 sec)
# of grid points (after weights+screening)   ...  17493 (   0.0 sec)
nearest neighbour list constructed           ...    0.0 sec
Grid point re-assignment to atoms done       ...    0.0 sec
Grid point division into batches done        ...    0.1 sec
Reduced shell lists constructed in    0.1 sec

Total number of grid points                  ...    17493
Total number of batches                      ...      274
Average number of points per batch           ...       63
Average number of grid points per atom       ...     8746
Average number of shells per batch           ...    38.29 (67.17%)
Average number of basis functions per batch  ...   160.57 (68.91%)
Average number of large shells per batch     ...    34.01 (88.84%)
Average number of large basis fcns per batch ...   144.93 (90.26%)
Maximum spatial batch extension              ...  16.29, 16.29, 13.24 au
Average spatial batch extension              ...   1.36,  1.36,  1.16 au

Time for grid setup =    0.161 sec

------------------------------
INITIAL GUESS: MODEL POTENTIAL
------------------------------
Loading Hartree-Fock densities                     ... done
Calculating cut-offs                               ... done
Setting up the integral package                    ... done
Initializing the effective Hamiltonian             ... done
Starting the Coulomb interaction                   ... done (   0.0 sec)
Reading the grid                                   ... done
Mapping shells                                     ... done
Starting the XC term evaluation                    ... done (   0.1 sec)
  promolecular density results
     # of electrons  =      8.999510835
     EX              =     -8.368263018
     EC              =     -0.280196006
     EX+EC           =     -8.648459024
Transforming the Hamiltonian                       ... done (   0.0 sec)
Diagonalizing the Hamiltonian                      ... done (   0.0 sec)
Back transforming the eigenvectors                 ... done (   0.0 sec)
Now organizing SCF variables                       ... done
                      ------------------
                      INITIAL GUESS DONE (   0.4 sec)
                      ------------------
--------------
SCF ITERATIONS
--------------
ITER       Energy         Delta-E        Max-DP      RMS-DP      [F,P]     Damp
               ***  Starting incremental Fock matrix formation  ***
  0    -75.6669417389   0.000000000000 0.00934033  0.00012405  0.1486428 0.7000
  1    -75.6777164737  -0.010774734785 0.00575843  0.00009458  0.0622660 0.7000
                               ***Turning on DIIS***
  2    -75.6813958174  -0.003679343687 0.00890439  0.00015682  0.0178507 0.0000
  3    -75.6882729904  -0.006877173083 0.00315751  0.00005772  0.0367361 0.0000
  4    -75.6895516347  -0.001278644211 0.00153293  0.00002431  0.0035034 0.0000
  5    -75.6895932189  -0.000041584223 0.00042175  0.00000633  0.0005880 0.0000
  6    -75.6895974360  -0.000004217103 0.00013781  0.00000182  0.0003980 0.0000
  7    -75.6895977168  -0.000000280855 0.00002101  0.00000030  0.0000519 0.0000
  8    -75.6895977352  -0.000000018358 0.00000533  0.00000011  0.0000047 0.0000
  9    -75.6895977370  -0.000000001839 0.00000140  0.00000003  0.0000013 0.0000
 10    -75.6895977372  -0.000000000122 0.00000032  0.00000001  0.0000006 0.0000
                 **** Energy Check signals convergence ****

               *****************************************************
               *                     SUCCESS                       *
               *           SCF CONVERGED AFTER  11 CYCLES          *
               *****************************************************


----------------
TOTAL SCF ENERGY
----------------

Total Energy       :          -75.68959774 Eh           -2059.61866 eV

Components:
Nuclear Repulsion  :            4.36569833 Eh             118.79669 eV
Electronic Energy  :          -80.05529606 Eh           -2178.41535 eV
One Electron Energy:         -112.60498477 Eh           -3064.13741 eV
Two Electron Energy:           32.54968871 Eh             885.72206 eV

Virial components:
Potential Energy   :         -151.16575117 Eh           -4113.42921 eV
Kinetic Energy     :           75.47615344 Eh            2053.81055 eV
Virial Ratio       :            2.00282797


DFT components:
N(Alpha)           :        5.000000090175 electrons
N(Beta)            :        4.000000099058 electrons
N(Total)           :        9.000000189233 electrons
E(X)               :       -8.517998843103 Eh       
E(C)               :       -0.279087716901 Eh       
E(XC)              :       -8.797086560005 Eh       
DFET-embed. en.    :        0.000000000000 Eh       

---------------
SCF CONVERGENCE
---------------

  Last Energy change         ...   -4.8743e-12  Tolerance :   1.0000e-09
  Last MAX-Density change    ...    6.9643e-08  Tolerance :   1.0000e-08
  Last RMS-Density change    ...    1.2207e-09  Tolerance :   1.0000e-09
  Last DIIS Error            ...    7.1574e-08  Tolerance :   1.0000e-08

             **** THE GBW FILE WAS UPDATED (oh_pbe_+0001_z.gbw) ****
             **** DENSITY FILE WAS UPDATED (oh_pbe_+0001_z.scfp.tmp) ****
             **** ENERGY FILE WAS UPDATED (oh_pbe_+0001_z.en.tmp) ****
----------------------
UHF SPIN CONTAMINATION
----------------------

Warning: in a DFT calculation there is little theoretical justification to 
         calculate <S**2> as in Hartree-Fock theory. We will do it anyways
         but you should keep in mind that the values have only limited relevance

Expectation value of <S**2>     :     0.752327
Ideal value S*(S+1) for S=0.5   :     0.750000
Deviation                       :     0.002327

----------------
ORBITAL ENERGIES
----------------
                 SPIN UP ORBITALS
  NO   OCC          E(Eh)            E(eV) 
   0   1.0000     -18.828366      -512.3459 
   1   1.0000      -0.935739       -25.4628 
   2   1.0000      -0.430267       -11.7082 
   3   1.0000      -0.367468        -9.9993 
   4   1.0000      -0.294303        -8.0084 
   5   0.0000      -0.032163        -0.8752 
   6   0.0000       0.030567         0.8318 
   7   0.0000       0.030876         0.8402 
   8   0.0000       0.032927         0.8960 
   9   0.0000       0.037480         1.0199 
  10   0.0000       0.091112         2.4793 
  11   0.0000       0.092377         2.5137 
  12   0.0000       0.092962         2.5296 
  13   0.0000       0.125012         3.4017 
  14   0.0000       0.144283         3.9261 
  15   0.0000       0.144388         3.9290 
  16   0.0000       0.148960         4.0534 
  17   0.0000       0.159113         4.3297 
  18   0.0000       0.165979         4.5165 
  19   0.0000       0.202343         5.5060 
  20   0.0000       0.205381         5.5887 
  21   0.0000       0.205854         5.6016 
  22   0.0000       0.221809         6.0357 
  23   0.0000       0.222031         6.0418 
  24   0.0000       0.243611         6.6290 
  25   0.0000       0.248012         6.7487 
  26   0.0000       0.266098         7.2409 
  27   0.0000       0.272544         7.4163 
  28   0.0000       0.272562         7.4168 
  29   0.0000       0.309534         8.4229 
  30   0.0000       0.356760         9.7079 
  31   0.0000       0.370013        10.0686 
  32   0.0000       0.372266        10.1299 
  33   0.0000       0.380091        10.3428 
  34   0.0000       0.380244        10.3470 
  35   0.0000       0.430369        11.7109 
  36   0.0000       0.453516        12.3408 
  37   0.0000       0.453594        12.3429 
  38   0.0000       0.462232        12.5780 
  39   0.0000       0.462240        12.5782 
  40   0.0000       0.462876        12.5955 
  41   0.0000       0.462878        12.5956 
  42   0.0000       0.468692        12.7538 
  43   0.0000       0.476290        12.9605 
  44   0.0000       0.480043        13.0626 
  45   0.0000       0.540814        14.7163 
  46   0.0000       0.543695        14.7947 
  47   0.0000       0.546928        14.8827 
  48   0.0000       0.556597        15.1458 
  49   0.0000       0.560159        15.2427 
  50   0.0000       0.560510        15.2523 
  51   0.0000       0.587317        15.9817 
  52   0.0000       0.598278        16.2800 
  53   0.0000       0.598288        16.2802 
  54   0.0000       0.604738        16.4558 
  55   0.0000       0.624301        16.9881 
  56   0.0000       0.628934        17.1142 
  57   0.0000       0.668800        18.1990 
  58   0.0000       0.668889        18.2014 
  59   0.0000       0.675164        18.3722 
  60   0.0000       0.724660        19.7190 
  61   0.0000       0.724661        19.7190 
  62   0.0000       0.735916        20.0253 
  63   0.0000       0.735920        20.0254 
  64   0.0000       0.801709        21.8156 
  65   0.0000       0.824760        22.4429 
  66   0.0000       0.833505        22.6808 
  67   0.0000       0.856604        23.3094 
  68   0.0000       0.856817        23.3152 
  69   0.0000       0.898125        24.4392 
  70   0.0000       0.898125        24.4392 
  71   0.0000       0.903482        24.5850 
  72   0.0000       0.959861        26.1191 
  73   0.0000       0.966457        26.2986 
  74   0.0000       0.979565        26.6553 
  75   0.0000       0.997948        27.1555 
  76   0.0000       1.004368        27.3302 
  77   0.0000       1.004772        27.3412 
  78   0.0000       1.007635        27.4191 
  79   0.0000       1.038524        28.2597 
  80   0.0000       1.038541        28.2601 
  81   0.0000       1.042984        28.3810 
  82   0.0000       1.042987        28.3811 
  83   0.0000       1.148352        31.2482 
  84   0.0000       1.210510        32.9397 
  85   0.0000       1.211271        32.9604 
  86   0.0000       1.259258        34.2661 
  87   0.0000       1.293427        35.1959 
  88   0.0000       1.303544        35.4712 
  89   0.0000       1.369297        37.2605 
  90   0.0000       1.517652        41.2974 
  91   0.0000       1.538185        41.8561 
  92   0.0000       1.700953        46.2853 
  93   0.0000       1.701985        46.3134 
  94   0.0000       1.746212        47.5168 
  95   0.0000       1.763378        47.9839 
  96   0.0000       1.774452        48.2853 
  97   0.0000       1.792503        48.7765 
  98   0.0000       1.836926        49.9853 
  99   0.0000       1.837155        49.9915 
 100   0.0000       2.098015        57.0899 
 101   0.0000       2.126356        57.8611 
 102   0.0000       2.205258        60.0081 
 103   0.0000       2.227815        60.6219 
 104   0.0000       2.232258        60.7428 
 105   0.0000       2.470778        67.2333 
 106   0.0000       2.644068        71.9488 
 107   0.0000       2.663909        72.4887 
 108   0.0000       2.912948        79.2653 
 109   0.0000       3.032320        82.5136 
 110   0.0000       3.032500        82.5185 
 111   0.0000       3.252902        88.5160 
 112   0.0000       3.268805        88.9487 
 113   0.0000       3.272948        89.0614 
 114   0.0000       3.458489        94.1103 
 115   0.0000       3.474894        94.5567 
 116   0.0000       3.637300        98.9760 
 117   0.0000       3.677566       100.0717 
 118   0.0000       3.677583       100.0721 
 119   0.0000       3.934396       107.0604 
 120   0.0000       3.935251       107.0836 
 121   0.0000       3.947898       107.4278 
 122   0.0000       4.091797       111.3435 
 123   0.0000       4.137512       112.5874 
 124   0.0000       4.287982       116.6819 
 125   0.0000       4.288131       116.6860 
 126   0.0000       4.436313       120.7182 
 127   0.0000       4.441248       120.8525 
 128   0.0000       4.492321       122.2423 
 129   0.0000       4.888317       133.0179 
 130   0.0000       5.040436       137.1572 
 131   0.0000       5.040470       137.1581 
 132   0.0000       5.297053       144.1401 
 133   0.0000       5.326065       144.9296 
 134   0.0000       5.393934       146.7764 
 135   0.0000       5.409467       147.1991 
 136   0.0000       5.438336       147.9847 
 137   0.0000       5.896035       160.4393 
 138   0.0000       5.896075       160.4404 
 139   0.0000       6.024231       163.9277 
 140   0.0000       6.179610       168.1557 
 141   0.0000       6.180639       168.1837 
 142   0.0000       6.209750       168.9759 
 143   0.0000       6.241066       169.8280 
 144   0.0000       6.738781       183.3715 
 145   0.0000       7.132781       194.0928 
 146   0.0000       7.136064       194.1822 
 147   0.0000       7.308407       198.8719 
 148   0.0000       7.357883       200.2182 
 149   0.0000       7.393306       201.1821 
 150   0.0000       8.276513       225.2154 
 151   0.0000       8.290703       225.6015 
 152   0.0000       8.717362       237.2115 
 153   0.0000       8.717372       237.2118 
 154   0.0000       9.170822       249.5508 
 155   0.0000       9.185620       249.9534 
 156   0.0000       9.187320       249.9997 
 157   0.0000       9.216870       250.8038 
 158   0.0000       9.605712       261.3847 
 159   0.0000       9.830145       267.4918 
 160   0.0000      10.345280       281.5094 
 161   0.0000      10.386867       282.6410 
 162   0.0000      10.616595       288.8922 
 163   0.0000      10.993492       299.1481 
 164   0.0000      11.066489       301.1345 
 165   0.0000      11.259886       306.3971 
 166   0.0000      11.645200       316.8820 
 167   0.0000      11.645434       316.8884 
 168   0.0000      11.711420       318.6839 
 169   0.0000      11.711445       318.6846 
 170   0.0000      11.951772       325.2243 
 171   0.0000      11.951784       325.2246 
 172   0.0000      11.969024       325.6937 
 173   0.0000      11.975443       325.8684 
 174   0.0000      11.975450       325.8686 
 175   0.0000      12.392040       337.2046 
 176   0.0000      12.472910       339.4051 
 177   0.0000      12.473312       339.4161 
 178   0.0000      12.553181       341.5894 
 179   0.0000      12.589318       342.5728 
 180   0.0000      12.599989       342.8631 
 181   0.0000      12.600074       342.8654 
 182   0.0000      12.732824       346.4778 
 183   0.0000      12.735960       346.5631 
 184   0.0000      13.691709       372.5703 
 185   0.0000      13.734188       373.7263 
 186   0.0000      13.735124       373.7517 
 187   0.0000      14.315156       389.5352 
 188   0.0000      14.315828       389.5535 
 189   0.0000      15.389169       418.7606 
 190   0.0000      16.670472       453.6266 
 191   0.0000      16.670483       453.6269 
 192   0.0000      16.939552       460.9487 
 193   0.0000      16.939579       460.9494 
 194   0.0000      16.947254       461.1582 
 195   0.0000      16.947429       461.1630 
 196   0.0000      16.963206       461.5923 
 197   0.0000      16.998699       462.5581 
 198   0.0000      17.035955       463.5719 
 199   0.0000      17.371358       472.6987 
 200   0.0000      17.415369       473.8963 
 201   0.0000      17.617290       479.3908 
 202   0.0000      17.617657       479.4008 
 203   0.0000      17.648286       480.2343 
 204   0.0000      17.648335       480.2356 
 205   0.0000      18.869932       513.4770 
 206   0.0000      19.664223       535.0907 
 207   0.0000      19.664291       535.0926 
 208   0.0000      20.554229       559.3090 
 209   0.0000      20.859110       567.6052 
 210   0.0000      20.890513       568.4598 
 211   0.0000      22.775851       619.7624 
 212   0.0000      22.776263       619.7736 
 213   0.0000      23.427612       637.4977 
 214   0.0000      23.451284       638.1419 
 215   0.0000      23.609467       642.4463 
 216   0.0000      23.650782       643.5705 
 217   0.0000      26.564081       722.8454 
 218   0.0000      26.961654       733.6639 
 219   0.0000      30.353701       825.9662 
 220   0.0000      31.762933       864.3133 
 221   0.0000      31.823458       865.9603 
 222   0.0000      33.945951       923.7163 
 223   0.0000      41.013193      1116.0257 
 224   0.0000      66.403227      1806.9237 
 225   0.0000      66.403545      1806.9323 
 226   0.0000      66.806172      1817.8884 
 227   0.0000      66.848966      1819.0528 
 228   0.0000      68.563132      1865.6977 
 229   0.0000      90.887283      2473.1687 
 230   0.0000      90.889382      2473.2258 
 231   0.0000      93.384163      2541.1123 
 232   0.0000     142.832360      3886.6661 

                 SPIN DOWN ORBITALS
  NO   OCC          E(Eh)            E(eV) 
   0   1.0000     -18.804726      -511.7026 
   1   1.0000      -0.878038       -23.8926 
   2   1.0000      -0.407294       -11.0830 
   3   1.0000      -0.271635        -7.3916 
   4   0.0000      -0.237341        -6.4584 
   5   0.0000      -0.027390        -0.7453 
   6   0.0000       0.032280         0.8784 
   7   0.0000       0.032948         0.8966 
   8   0.0000       0.038048         1.0353 
   9   0.0000       0.039199         1.0667 
  10   0.0000       0.091734         2.4962 
  11   0.0000       0.094964         2.5841 
  12   0.0000       0.095070         2.5870 
  13   0.0000       0.127650         3.4735 
  14   0.0000       0.147776         4.0212 
  15   0.0000       0.149215         4.0603 
  16   0.0000       0.153895         4.1877 
  17   0.0000       0.167452         4.5566 
  18   0.0000       0.174912         4.7596 
  19   0.0000       0.203521         5.5381 
  20   0.0000       0.204940         5.5767 
  21   0.0000       0.209058         5.6888 
  22   0.0000       0.224325         6.1042 
  23   0.0000       0.226564         6.1651 
  24   0.0000       0.247851         6.7444 
  25   0.0000       0.251490         6.8434 
  26   0.0000       0.269658         7.3378 
  27   0.0000       0.276119         7.5136 
  28   0.0000       0.277331         7.5466 
  29   0.0000       0.312879         8.5139 
  30   0.0000       0.358958         9.7678 
  31   0.0000       0.371878        10.1193 
  32   0.0000       0.376974        10.2580 
  33   0.0000       0.381827        10.3900 
  34   0.0000       0.383833        10.4446 
  35   0.0000       0.435225        11.8431 
  36   0.0000       0.458966        12.4891 
  37   0.0000       0.461355        12.5541 
  38   0.0000       0.466465        12.6932 
  39   0.0000       0.466899        12.7050 
  40   0.0000       0.468306        12.7433 
  41   0.0000       0.469351        12.7717 
  42   0.0000       0.474667        12.9164 
  43   0.0000       0.479565        13.0496 
  44   0.0000       0.483762        13.1638 
  45   0.0000       0.546330        14.8664 
  46   0.0000       0.549928        14.9643 
  47   0.0000       0.558912        15.2088 
  48   0.0000       0.566456        15.4141 
  49   0.0000       0.567130        15.4324 
  50   0.0000       0.568886        15.4802 
  51   0.0000       0.591309        16.0903 
  52   0.0000       0.599525        16.3139 
  53   0.0000       0.599934        16.3250 
  54   0.0000       0.606792        16.5116 
  55   0.0000       0.629371        17.1261 
  56   0.0000       0.636309        17.3148 
  57   0.0000       0.674448        18.3527 
  58   0.0000       0.676325        18.4037 
  59   0.0000       0.680598        18.5200 
  60   0.0000       0.732190        19.9239 
  61   0.0000       0.732859        19.9421 
  62   0.0000       0.742740        20.2110 
  63   0.0000       0.743965        20.2443 
  64   0.0000       0.806845        21.9554 
  65   0.0000       0.834664        22.7124 
  66   0.0000       0.840585        22.8735 
  67   0.0000       0.866053        23.5665 
  68   0.0000       0.868768        23.6404 
  69   0.0000       0.907464        24.6934 
  70   0.0000       0.907869        24.7044 
  71   0.0000       0.907939        24.7063 
  72   0.0000       0.966239        26.2927 
  73   0.0000       0.971287        26.4301 
  74   0.0000       0.983343        26.7581 
  75   0.0000       1.008483        27.4422 
  76   0.0000       1.008801        27.4509 
  77   0.0000       1.011519        27.5248 
  78   0.0000       1.014385        27.6028 
  79   0.0000       1.043144        28.3854 
  80   0.0000       1.044228        28.4149 
  81   0.0000       1.050803        28.5938 
  82   0.0000       1.051591        28.6152 
  83   0.0000       1.156215        31.4622 
  84   0.0000       1.218608        33.1600 
  85   0.0000       1.220340        33.2071 
  86   0.0000       1.278866        34.7997 
  87   0.0000       1.302279        35.4368 
  88   0.0000       1.305477        35.5238 
  89   0.0000       1.372407        37.3451 
  90   0.0000       1.542355        41.9696 
  91   0.0000       1.552903        42.2566 
  92   0.0000       1.740174        47.3526 
  93   0.0000       1.748215        47.5714 
  94   0.0000       1.774924        48.2981 
  95   0.0000       1.781745        48.4837 
  96   0.0000       1.793774        48.8111 
  97   0.0000       1.803392        49.0728 
  98   0.0000       1.869199        50.8635 
  99   0.0000       1.870404        50.8963 
 100   0.0000       2.131554        58.0025 
 101   0.0000       2.141892        58.2838 
 102   0.0000       2.225316        60.5539 
 103   0.0000       2.248649        61.1888 
 104   0.0000       2.252404        61.2910 
 105   0.0000       2.477657        67.4205 
 106   0.0000       2.665638        72.5357 
 107   0.0000       2.671406        72.6927 
 108   0.0000       2.933040        79.8121 
 109   0.0000       3.038932        82.6935 
 110   0.0000       3.040286        82.7304 
 111   0.0000       3.266670        88.8906 
 112   0.0000       3.269398        88.9648 
 113   0.0000       3.282482        89.3209 
 114   0.0000       3.474933        94.5577 
 115   0.0000       3.479838        94.6912 
 116   0.0000       3.653502        99.4168 
 117   0.0000       3.686106       100.3040 
 118   0.0000       3.686186       100.3062 
 119   0.0000       3.974709       108.1573 
 120   0.0000       3.996668       108.7549 
 121   0.0000       4.011585       109.1608 
 122   0.0000       4.146665       112.8365 
 123   0.0000       4.161200       113.2320 
 124   0.0000       4.300637       117.0263 
 125   0.0000       4.303206       117.0962 
 126   0.0000       4.453874       121.1961 
 127   0.0000       4.508051       122.6703 
 128   0.0000       4.532585       123.3379 
 129   0.0000       4.906012       133.4994 
 130   0.0000       5.110784       139.0715 
 131   0.0000       5.114475       139.1719 
 132   0.0000       5.328770       145.0032 
 133   0.0000       5.336722       145.2196 
 134   0.0000       5.446631       148.2104 
 135   0.0000       5.451222       148.3353 
 136   0.0000       5.461350       148.6109 
 137   0.0000       5.967373       162.3805 
 138   0.0000       5.968490       162.4109 
 139   0.0000       6.041011       164.3843 
 140   0.0000       6.231025       169.5548 
 141   0.0000       6.231605       169.5706 
 142   0.0000       6.243199       169.8861 
 143   0.0000       6.251644       170.1159 
 144   0.0000       6.748567       183.6379 
 145   0.0000       7.169902       195.1030 
 146   0.0000       7.176011       195.2692 
 147   0.0000       7.332715       199.5333 
 148   0.0000       7.396973       201.2819 
 149   0.0000       7.404731       201.4930 
 150   0.0000       8.285117       225.4495 
 151   0.0000       8.286310       225.4820 
 152   0.0000       8.719074       237.2581 
 153   0.0000       8.720349       237.2928 
 154   0.0000       9.224192       251.0030 
 155   0.0000       9.243550       251.5298 
 156   0.0000       9.279011       252.4947 
 157   0.0000       9.300305       253.0742 
 158   0.0000       9.638106       262.2662 
 159   0.0000       9.846021       267.9239 
 160   0.0000      10.392657       282.7986 
 161   0.0000      10.406987       283.1885 
 162   0.0000      10.664960       290.2083 
 163   0.0000      11.089067       301.7489 
 164   0.0000      11.122514       302.6590 
 165   0.0000      11.279896       306.9416 
 166   0.0000      11.664202       317.3991 
 167   0.0000      11.668384       317.5129 
 168   0.0000      11.744089       319.5729 
 169   0.0000      11.745453       319.6100 
 170   0.0000      11.981860       326.0430 
 171   0.0000      12.021383       327.1185 
 172   0.0000      12.022204       327.1408 
 173   0.0000      12.067108       328.3627 
 174   0.0000      12.068005       328.3871 
 175   0.0000      12.431697       338.2837 
 176   0.0000      12.541197       341.2633 
 177   0.0000      12.543056       341.3139 
 178   0.0000      12.590211       342.5971 
 179   0.0000      12.600922       342.8885 
 180   0.0000      12.660619       344.5129 
 181   0.0000      12.667492       344.7000 
 182   0.0000      12.797646       348.2416 
 183   0.0000      12.810404       348.5888 
 184   0.0000      13.739955       373.8832 
 185   0.0000      13.758901       374.3987 
 186   0.0000      13.759239       374.4079 
 187   0.0000      14.336680       390.1209 
 188   0.0000      14.342081       390.2679 
 189   0.0000      15.407737       419.2658 
 190   0.0000      16.682443       453.9523 
 191   0.0000      16.682805       453.9622 
 192   0.0000      16.990932       462.3468 
 193   0.0000      17.020853       463.1610 
 194   0.0000      17.023048       463.2207 
 195   0.0000      17.039214       463.6606 
 196   0.0000      17.042549       463.7513 
 197   0.0000      17.045912       463.8428 
 198   0.0000      17.050184       463.9591 
 199   0.0000      17.419007       473.9953 
 200   0.0000      17.434051       474.4046 
 201   0.0000      17.661266       480.5875 
 202   0.0000      17.662198       480.6128 
 203   0.0000      17.674613       480.9507 
 204   0.0000      17.686997       481.2877 
 205   0.0000      18.900551       514.3101 
 206   0.0000      19.670939       535.2735 
 207   0.0000      19.673293       535.3375 
 208   0.0000      20.573006       559.8200 
 209   0.0000      20.889649       568.4363 
 210   0.0000      20.899503       568.7044 
 211   0.0000      22.877811       622.5369 
 212   0.0000      22.891559       622.9110 
 213   0.0000      23.446582       638.0139 
 214   0.0000      23.452965       638.1876 
 215   0.0000      23.656387       643.7230 
 216   0.0000      23.683481       644.4603 
 217   0.0000      26.583858       723.3836 
 218   0.0000      26.984858       734.2953 
 219   0.0000      30.391273       826.9886 
 220   0.0000      31.845809       866.5685 
 221   0.0000      31.884636       867.6251 
 222   0.0000      33.977473       924.5741 
 223   0.0000      41.006180      1115.8349 
 224   0.0000      66.473501      1808.8359 
 225   0.0000      66.483956      1809.1204 
 226   0.0000      66.859249      1819.3327 
 227   0.0000      66.880815      1819.9195 
 228   0.0000      68.597858      1866.6426 
 229   0.0000      90.876854      2472.8849 
 230   0.0000      90.877505      2472.9026 
 231   0.0000      93.373492      2540.8219 
 232   0.0000     142.857664      3887.3547 

                    ********************************
                    * MULLIKEN POPULATION ANALYSIS *
                    ********************************

--------------------------------------------
MULLIKEN ATOMIC CHARGES AND SPIN POPULATIONS
--------------------------------------------
   0 H :    0.200363    0.003949
   1 O :   -0.200363    0.996051
Sum of atomic charges         :    0.0000000
Sum of atomic spin populations:    1.0000000

-----------------------------------------------------
MULLIKEN REDUCED ORBITAL CHARGES AND SPIN POPULATIONS
-----------------------------------------------------
CHARGE
  0 H s       :     0.685770  s :     0.685770
      pz      :     0.025948  p :     0.098419
      px      :     0.055066
      py      :     0.017405
      dz2     :     0.002793  d :     0.012935
      dxz     :     0.007607
      dyz     :     0.002530
      dx2y2   :     0.000005
      dxy     :     0.000000
      f0      :     0.000127  f :     0.002257
      f+1     :     0.001648
      f-1     :     0.000487
      f+2     :     0.000003
      f-2     :     0.000000
      f+3     :    -0.000005
      f-3     :    -0.000003
      g0      :    -0.000021  g :     0.000256
      g+1     :     0.000215
      g-1     :     0.000063
      g+2     :     0.000001
      g-2     :     0.000000
      g+3     :    -0.000001
      g-3     :    -0.000001
      g+4     :    -0.000000
      g-4     :    -0.000000
  1 O s       :     3.912844  s :     3.912844
      pz      :     1.363998  p :     4.274828
      px      :     1.932654
      py      :     0.978176
      dz2     :     0.007743  d :     0.012039
      dxz     :     0.002637
      dyz     :     0.001281
      dx2y2   :     0.000378
      dxy     :     0.000000
      f0      :     0.000325  f :     0.000614
      f+1     :     0.000084
      f-1     :    -0.000021
      f+2     :     0.000042
      f-2     :     0.000000
      f+3     :     0.000100
      f-3     :     0.000085
      g0      :     0.000041  g :     0.000038
      g+1     :    -0.000005
      g-1     :    -0.000000
      g+2     :     0.000000
      g-2     :     0.000000
      g+3     :     0.000000
      g-3     :     0.000000
      g+4     :     0.000001
      g-4     :     0.000000
      h0      :     0.000001  h :     0.000001
      h+1     :    -0.000001
      h-1     :    -0.000000
      h+2     :     0.000000
      h-2     :     0.000000
      h+3     :     0.000000
      h-3     :     0.000000
      h+4     :     0.000000
      h-4     :     0.000000
      h+5     :     0.000000
      h-5     :     0.000000

SPIN
  0 H s       :    -0.008403  s :    -0.008403
      pz      :    -0.002128  p :     0.010601
      px      :    -0.004675
      py      :     0.017405
      dz2     :    -0.000373  d :     0.001375
      dxz     :    -0.000788
      dyz     :     0.002530
      dx2y2   :     0.000006
      dxy     :     0.000000
      f0      :    -0.000023  f :     0.000323
      f+1     :    -0.000135
      f-1     :     0.000487
      f+2     :     0.000002
      f-2     :     0.000000
      f+3     :    -0.000005
      f-3     :    -0.000003
      g0      :     0.000001  g :     0.000053
      g+1     :    -0.000009
      g-1     :     0.000063
      g+2     :     0.000000
      g-2     :     0.000000
      g+3     :    -0.000001
      g-3     :    -0.000001
      g+4     :     0.000000
      g-4     :     0.000000
  1 O s       :    -0.003153  s :    -0.003153
      pz      :     0.013631  p :     0.997294
      px      :     0.005486
      py      :     0.978176
      dz2     :     0.000486  d :     0.002120
      dxz     :     0.000076
      dyz     :     0.001281
      dx2y2   :     0.000277
      dxy     :     0.000000
      f0      :    -0.000359  f :    -0.000207
      f+1     :    -0.000040
      f-1     :    -0.000021
      f+2     :     0.000036
      f-2     :     0.000000
      f+3     :     0.000092
      f-3     :     0.000085
      g0      :    -0.000003  g :    -0.000004
      g+1     :     0.000000
      g-1     :    -0.000000
      g+2     :    -0.000000
      g-2     :    -0.000000
      g+3     :     0.000000
      g-3     :     0.000000
      g+4     :    -0.000001
      g-4     :    -0.000000
      h0      :     0.000003  h :     0.000002
      h+1     :     0.000000
      h-1     :    -0.000000
      h+2     :    -0.000000
      h-2     :    -0.000000
      h+3     :    -0.000000
      h-3     :     0.000000
      h+4     :    -0.000000
      h-4     :    -0.000000
      h+5     :    -0.000000
      h-5     :     0.000000


                     *******************************
                     * LOEWDIN POPULATION ANALYSIS *
                     *******************************

-------------------------------------------
LOEWDIN ATOMIC CHARGES AND SPIN POPULATIONS
-------------------------------------------
   0 H :   -0.873981    0.180099
   1 O :    0.873981    0.819901

----------------------------------------------------
LOEWDIN REDUCED ORBITAL CHARGES AND SPIN POPULATIONS
----------------------------------------------------
CHARGE
  0 H s       :     0.719905  s :     0.719905
      pz      :     0.345190  p :     0.646822
      px      :     0.211411
      py      :     0.090221
      dz2     :     0.161226  d :     0.400115
      dxz     :     0.158881
      dyz     :     0.079992
      dx2y2   :     0.000017
      dxy     :     0.000000
      f0      :     0.026472  f :     0.098630
      f+1     :     0.047047
      f-1     :     0.025094
      f+2     :     0.000014
      f-2     :     0.000000
      f+3     :     0.000002
      f-3     :     0.000002
      g0      :     0.003491  g :     0.008509
      g+1     :     0.003354
      g-1     :     0.001659
      g+2     :     0.000002
      g-2     :     0.000000
      g+3     :     0.000002
      g-3     :     0.000001
      g+4     :     0.000000
      g-4     :     0.000000
  1 O s       :     3.289327  s :     3.289327
      pz      :     1.420521  p :     3.796542
      px      :     1.575234
      py      :     0.800786
      dz2     :     0.028006  d :     0.032685
      dxz     :     0.002918
      dyz     :     0.001406
      dx2y2   :     0.000355
      dxy     :     0.000000
      f0      :     0.004485  f :     0.005876
      f+1     :     0.000646
      f-1     :     0.000538
      f+2     :     0.000041
      f-2     :     0.000000
      f+3     :     0.000089
      f-3     :     0.000078
      g0      :     0.000607  g :     0.000987
      g+1     :     0.000242
      g-1     :     0.000135
      g+2     :     0.000001
      g-2     :     0.000000
      g+3     :     0.000000
      g-3     :     0.000000
      g+4     :     0.000001
      g-4     :     0.000000
      h0      :     0.000339  h :     0.000603
      h+1     :     0.000173
      h-1     :     0.000090
      h+2     :     0.000000
      h-2     :     0.000000
      h+3     :     0.000000
      h-3     :     0.000000
      h+4     :     0.000000
      h-4     :     0.000000
      h+5     :     0.000000
      h-5     :     0.000000

SPIN
  0 H s       :    -0.015363  s :    -0.015363
      pz      :     0.000754  p :     0.085260
      px      :    -0.005715
      py      :     0.090221
      dz2     :     0.002331  d :     0.082721
      dxz     :     0.000385
      dyz     :     0.079992
      dx2y2   :     0.000014
      dxy     :     0.000000
      f0      :     0.000243  f :     0.025896
      f+1     :     0.000545
      f-1     :     0.025094
      f+2     :     0.000010
      f-2     :     0.000000
      f+3     :     0.000002
      f-3     :     0.000002
      g0      :    -0.000063  g :     0.001584
      g+1     :    -0.000016
      g-1     :     0.001659
      g+2     :     0.000002
      g-2     :     0.000000
      g+3     :     0.000001
      g-3     :     0.000001
      g+4     :    -0.000000
      g-4     :    -0.000000
  1 O s       :     0.004505  s :     0.004505
      pz      :     0.008823  p :     0.814289
      px      :     0.004680
      py      :     0.800786
      dz2     :    -0.000888  d :     0.000732
      dxz     :    -0.000046
      dyz     :     0.001406
      dx2y2   :     0.000260
      dxy     :     0.000000
      f0      :    -0.000640  f :     0.000171
      f+1     :     0.000077
      f-1     :     0.000538
      f+2     :     0.000036
      f-2     :     0.000000
      f+3     :     0.000082
      f-3     :     0.000078
      g0      :    -0.000027  g :     0.000111
      g+1     :     0.000004
      g-1     :     0.000135
      g+2     :    -0.000000
      g-2     :    -0.000000
      g+3     :     0.000000
      g-3     :     0.000000
      g+4     :    -0.000001
      g-4     :    -0.000000
      h0      :     0.000003  h :     0.000093
      h+1     :     0.000001
      h-1     :     0.000090
      h+2     :    -0.000000
      h-2     :    -0.000000
      h+3     :     0.000000
      h-3     :     0.000000
      h+4     :    -0.000000
      h-4     :    -0.000000
      h+5     :    -0.000000
      h-5     :     0.000000


                      *****************************
                      * MAYER POPULATION ANALYSIS *
                      *****************************

  NA   - Mulliken gross atomic population
  ZA   - Total nuclear charge
  QA   - Mulliken gross atomic charge
  VA   - Mayer's total valence
  BVA  - Mayer's bonded valence
  FA   - Mayer's free valence

  ATOM       NA         ZA         QA         VA         BVA        FA
  0 H      0.7996     1.0000     0.2004     1.0471     1.0466     0.0005
  1 O      8.2004     8.0000    -0.2004     2.0100     1.0466     0.9633

  Mayer bond orders larger than 0.1
B(  0-H ,  1-O ) :   1.0466 

-------
TIMINGS
-------

Total SCF time: 0 days 0 hours 1 min 26 sec 

Total time                  ....      86.591 sec
Sum of individual times     ....      86.057 sec  ( 99.4%)

Fock matrix formation       ....      85.004 sec  ( 98.2%)
  XC integration            ....       3.826 sec  (  4.5% of F)
    Basis function eval.    ....       0.275 sec  (  7.2% of XC)
    Density eval.           ....       0.662 sec  ( 17.3% of XC)
    XC-Functional eval.     ....       0.063 sec  (  1.7% of XC)
    XC-Potential eval.      ....       2.186 sec  ( 57.1% of XC)
Diagonalization             ....       0.349 sec  (  0.4%)
Density matrix formation    ....       0.008 sec  (  0.0%)
Population analysis         ....       0.050 sec  (  0.1%)
Initial guess               ....       0.254 sec  (  0.3%)
Orbital Transformation      ....       0.000 sec  (  0.0%)
Orbital Orthonormalization  ....       0.000 sec  (  0.0%)
DIIS solution               ....       0.230 sec  (  0.3%)
Grid generation             ....       0.161 sec  (  0.2%)

-------------------------   --------------------
FINAL SINGLE POINT ENERGY       -75.689597737158
-------------------------   --------------------


                            ***************************************
                            *     ORCA property calculations      *
                            ***************************************

                                    ---------------------
                                    Active property flags
                                    ---------------------
   (+) Dipole Moment


------------------------------------------------------------------------------
                       ORCA ELECTRIC PROPERTIES CALCULATION
------------------------------------------------------------------------------

Dipole Moment Calculation                       ... on
Quadrupole Moment Calculation                   ... off
Polarizability Calculation                      ... off
GBWName                                         ... oh_pbe_+0001_z.gbw
Electron density file                           ... oh_pbe_+0001_z.scfp.tmp
The origin for moment calculation is the CENTER OF MASS  = ( 0.000000,  0.000000  1.723858)

-------------
DIPOLE MOMENT
-------------
                                X             Y             Z
Electronic contribution:      0.00000       0.00000       0.23697
Nuclear contribution   :      0.00000       0.00000      -0.85498
                        -----------------------------------------
Total Dipole Moment    :      0.00000       0.00000      -0.61800
                        -----------------------------------------
Magnitude (a.u.)       :      0.61800
Magnitude (Debye)      :      1.57084



--------------------
Rotational spectrum 
--------------------
 
Rotational constants in cm-1:     0.000000    18.905861    18.905861 
Rotational constants in MHz :     0.000000 566783.441526 566783.441526 

 Dipole components along the rotational axes: 
x,y,z [a.u.] :    -0.618005     0.000000     0.000000 
x,y,z [Debye]:    -1.570843     0.000000     0.000000 

 

Timings for individual modules:

Sum of individual times         ...       87.812 sec (=   1.464 min)
GTO integral calculation        ...        0.918 sec (=   0.015 min)   1.0 %
SCF iterations                  ...       86.895 sec (=   1.448 min)  99.0 %
                             ****ORCA TERMINATED NORMALLY****
TOTAL RUN TIME: 0 days 0 hours 1 minutes 28 seconds 601 msec
