
                                 *****************
                                 * O   R   C   A *
                                 *****************

           --- An Ab Initio, DFT and Semiempirical electronic structure package ---

                  #######################################################
                  #                        -***-                        #
                  #          Department of theory and spectroscopy      #
                  #               Directorship: Frank Neese             #
                  #        Max Planck Institute fuer Kohlenforschung    #
                  #                Kaiser Wilhelm Platz 1               #
                  #                 D-45470 Muelheim/Ruhr               #
                  #                      Germany                        #
                  #                                                     #
                  #                  All rights reserved                #
                  #                        -***-                        #
                  #######################################################


                         Program Version 4.1.2  - RELEASE  -


 With contributions from (in alphabetic order):
   Daniel Aravena         : Magnetic Properties
   Michael Atanasov       : Ab Initio Ligand Field Theory
   Alexander A. Auer      : GIAO ZORA
   Ute Becker             : Parallelization
   Giovanni Bistoni       : ED, Open-shell LED
   Martin Brehm           : Molecular dynamics
   Dmytro Bykov           : SCF Hessian
   Vijay G. Chilkuri      : MRCI spin determinant printing
   Dipayan Datta          : RHF DLPNO-CCSD density
   Achintya Kumar Dutta   : EOM-CC, STEOM-CC
   Dmitry Ganyushin       : Spin-Orbit,Spin-Spin,Magnetic field MRCI
   Miquel Garcia          : C-PCM Hessian
   Yang Guo               : DLPNO-NEVPT2, CIM, IAO-localization
   Andreas Hansen         : Spin unrestricted coupled pair/coupled cluster methods
   Benjamin Helmich-Paris : CASSCF linear response (MC-RPA)
   Lee Huntington         : MR-EOM, pCC
   Robert Izsak           : Overlap fitted RIJCOSX, COSX-SCS-MP3, EOM
   Christian Kollmar      : KDIIS, OOCD, Brueckner-CCSD(T), CCSD density
   Simone Kossmann        : Meta GGA functionals, TD-DFT gradient, OOMP2, MP2 Hessian
   Martin Krupicka        : AUTO-CI
   Lucas Lang             : DCDCAS
   Dagmar Lenk            : GEPOL surface, SMD
   Dimitrios Liakos       : Extrapolation schemes; parallel MDCI
   Dimitrios Manganas     : ROCIS; embedding schemes
   Dimitrios Pantazis     : SARC Basis sets
   Taras Petrenko         : DFT Hessian,TD-DFT gradient, ASA, ECA, R-Raman, ABS, FL, XAS/XES, NRVS
   Peter Pinski           : DLPNO-MP2, DLPNO-MP2 Gradient
   Christoph Reimann      : Effective Core Potentials
   Marius Retegan         : Local ZFS, SOC
   Christoph Riplinger    : Optimizer, TS searches, QM/MM, DLPNO-CCSD(T), (RO)-DLPNO pert. Triples
   Tobias Risthaus        : Range-separated hybrids, TD-DFT gradient, RPA, STAB
   Michael Roemelt        : Restricted open shell CIS
   Masaaki Saitow         : Open-shell DLPNO
   Barbara Sandhoefer     : DKH picture change effects
   Avijit Sen             : IP-ROCIS
   Kantharuban Sivalingam : CASSCF convergence, NEVPT2, FIC-MRCI
   Bernardo de Souza      : ESD, SOC TD-DFT
   Georgi Stoychev        : AutoAux, RI-MP2 NMR
   Willem Van den Heuvel  : Paramagnetic NMR
   Boris Wezisla          : Elementary symmetry handling
   Frank Wennmohs         : Technical directorship


 We gratefully acknowledge several colleagues who have allowed us to
 interface, adapt or use parts of their codes:
   Stefan Grimme, W. Hujo, H. Kruse,             : VdW corrections, initial TS optimization,
                  C. Bannwarth                     DFT functionals, gCP, sTDA/sTD-DF
   Ed Valeev                                     : LibInt (2-el integral package), F12 methods
   Garnet Chan, S. Sharma, J. Yang, R. Olivares  : DMRG
   Ulf Ekstrom                                   : XCFun DFT Library
   Mihaly Kallay                                 : mrcc  (arbitrary order and MRCC methods)
   Andreas Klamt, Michael Diedenhofen            : otool_cosmo (COSMO solvation model)
   Jiri Pittner, Ondrej Demel                    : Mk-CCSD
   Frank Weinhold                                : gennbo (NPA and NBO analysis)
   Christopher J. Cramer and Donald G. Truhlar   : smd solvation model
   Lars Goerigk                                  : TD-DFT with DH, B97 family of functionals
   V. Asgeirsson, H. Jonsson                     : NEB implementation
   FAccTs GmbH                                   : IRC, NEB, NEB-TS, Multilevel


 Your calculation uses the libint2 library for the computation of 2-el integrals
 For citations please refer to: http://libint.valeyev.net

 This ORCA versions uses:
   CBLAS   interface :  Fast vector & matrix operations
   LAPACKE interface :  Fast linear algebra routines
   SCALAPACK package :  Parallel linear algebra routines


----- Orbital basis set information -----
Your calculation utilizes the basis: aug-pc-4
   H, C-F              : F. Jensen, J. Chem. Phys. 115, 9113 (2001).
                         F. Jensen, J. Chem. Phys. 116, 7372 (2002).
                         F. Jensen, J. Chem. Phys. 117, 9234 (2002).
   Si-Cl               : F. Jensen, T. Helgaker, J. Chem. Phys. 121, 3463 (2004).
   He-B, Ne-Mg, Al, Ar : F. Jensen, J. Phys. Chem. A 111, 11198 (2007).
   K, Ca, Ga-Kr        : F. Jensen, J. Chem. Phys. 136, 094110 (2012).
   Sc-Zn               : F. Jensen, J. Chem. Phys. 138, 014107 (2013).

================================================================================
                                        WARNINGS
                       Please study these warnings very carefully!
================================================================================


INFO   : the flag for use of LIBINT has been found!

================================================================================
                                       INPUT FILE
================================================================================
NAME = scl_pbe_+0001_x.inp
|  1> !uks pbe nori aug-pc-4 grid5 nofinalgrid verytightscf
|  2> 
|  3> %maxcore 6000
|  4> 
|  5> %pal nprocs 4 end
|  6> 
|  7> %scf
|  8> 	efield 0.001, 0.0, 0.0
|  9> 	maxiter 200
| 10> end
| 11> 
| 12> * xyz 0 2
| 13> S 0.0000 0.0000 0.0000
| 14> Cl 0.0000 0.0000 1.9753
| 15> *
| 16> 
| 17>                          ****END OF INPUT****
================================================================================

                       ****************************
                       * Single Point Calculation *
                       ****************************

---------------------------------
CARTESIAN COORDINATES (ANGSTROEM)
---------------------------------
  S      0.000000    0.000000    0.000000
  Cl     0.000000    0.000000    1.975300

----------------------------
CARTESIAN COORDINATES (A.U.)
----------------------------
  NO LB      ZA    FRAG     MASS         X           Y           Z
   0 S    16.0000    0    32.060    0.000000    0.000000    0.000000
   1 Cl   17.0000    0    35.453    0.000000    0.000000    3.732776

--------------------------------
INTERNAL COORDINATES (ANGSTROEM)
--------------------------------
 S      0   0   0     0.000000000000     0.00000000     0.00000000
 Cl     1   0   0     1.975300000000     0.00000000     0.00000000

---------------------------
INTERNAL COORDINATES (A.U.)
---------------------------
 S      0   0   0     0.000000000000     0.00000000     0.00000000
 Cl     1   0   0     3.732776032335     0.00000000     0.00000000

---------------------
BASIS SET INFORMATION
---------------------
There are 2 groups of distinct atoms

 Group   1 Type S   : 44s27p7d4f3g2h contracted to 8s7p7d4f3g2h pattern {15121211111/111111111/1111111/1111/111/11}
 Group   2 Type Cl  : 44s27p7d4f3g2h contracted to 8s7p7d4f3g2h pattern {15121211111/111111111/1111111/1111/111/11}

Atom   0S    basis set group =>   1
Atom   1Cl   basis set group =>   2


           ************************************************************
           *        Program running with 4 parallel MPI-processes     *
           *              working on a common directory               *
           ************************************************************
------------------------------------------------------------------------------
                           ORCA GTO INTEGRAL CALCULATION
------------------------------------------------------------------------------

                         BASIS SET STATISTICS AND STARTUP INFO

 # of primitive gaussian shells          ...  174
 # of primitive gaussian functions       ...  474
 # of contracted shells                  ...   62
 # of contracted basis functions         ...  282
 Highest angular momentum                ...    5
 Maximum contraction depth               ...   15
 Integral package used                   ... LIBINT
 Integral threshhold            Thresh   ...  1.000e-12
 Primitive cut-off              TCut     ...  1.000e-14


------------------------------ INTEGRAL EVALUATION ----------------------------


 * One electron integrals 
 Pre-screening matrix                    ... done
 Shell pair data                         ... done (   0.001 sec)


An Electric Field will be added: 1.000e-03 0.000e+00 0.000e+00 au

  ... done adding electric field perturbation



           ************************************************************
           *        Program running with 4 parallel MPI-processes     *
           *              working on a common directory               *
           ************************************************************
-------------------------------------------------------------------------------
                                 ORCA SCF
-------------------------------------------------------------------------------

------------
SCF SETTINGS
------------
Hamiltonian:
 Density Functional     Method          .... DFT(GTOs)
 Exchange Functional    Exchange        .... PBE
   PBE kappa parameter   XKappa         ....  0.804000
   PBE mue parameter    XMuePBE         ....  0.219520
 Correlation Functional Correlation     .... PBE
   PBE beta parameter  CBetaPBE         ....  0.066725
 LDA part of GGA corr.  LDAOpt          .... PW91-LDA
 Gradients option       PostSCFGGA      .... off
   Density functional embedding theory  .... OFF
   NL short-range parameter             ....  6.400000


General Settings:
 Integral files         IntName         .... scl_pbe_+0001_x
 Hartree-Fock type      HFTyp           .... UHF
 Total Charge           Charge          ....    0
 Multiplicity           Mult            ....    2
 Number of Electrons    NEL             ....   33
 Basis Dimension        Dim             ....  282
 Nuclear Repulsion      ENuc            ....     72.8680203805 Eh

Convergence Acceleration:
 DIIS                   CNVDIIS         .... on
   Start iteration      DIISMaxIt       ....    12
   Startup error        DIISStart       ....  0.200000
   # of expansion vecs  DIISMaxEq       ....     5
   Bias factor          DIISBfac        ....   1.050
   Max. coefficient     DIISMaxC        ....  10.000
 Newton-Raphson         CNVNR           .... off
 SOSCF                  CNVSOSCF        .... off
 Level Shifting         CNVShift        .... on
   Level shift para.    LevelShift      ....    0.2500
   Turn off err/grad.   ShiftErr        ....    0.0010
 Zerner damping         CNVZerner       .... off
 Static damping         CNVDamp         .... on
   Fraction old density DampFac         ....    0.7000
   Max. Damping (<1)    DampMax         ....    0.9800
   Min. Damping (>=0)   DampMin         ....    0.0000
   Turn off err/grad.   DampErr         ....    0.1000
 Fernandez-Rico         CNVRico         .... off

SCF Procedure:
 Maximum # iterations   MaxIter         ....   200
 SCF integral mode      SCFMode         .... Direct
   Integral package                     .... LIBINT
 Reset frequency        DirectResetFreq ....    20
 Integral Threshold     Thresh          ....  1.000e-12 Eh
 Primitive CutOff       TCut            ....  1.000e-14 Eh

Convergence Tolerance:
 Convergence Check Mode ConvCheckMode   .... Total+1el-Energy
 Convergence forced     ConvForced      .... 0
 Energy Change          TolE            ....  1.000e-09 Eh
 1-El. energy change                    ....  1.000e-06 Eh
 DIIS Error             TolErr          ....  1.000e-08


Diagonalization of the overlap matrix:
Smallest eigenvalue                        ... 1.610e-05
Time for diagonalization                   ...    0.013 sec
Threshold for overlap eigenvalues          ... 1.000e-08
Number of eigenvalues below threshold      ... 0
Time for construction of square roots      ...    0.036 sec
Total time needed                          ...    0.049 sec

-------------------
DFT GRID GENERATION
-------------------

General Integration Accuracy     IntAcc      ...  5.010
Radial Grid Type                 RadialGrid  ... Gauss-Chebyshev
Angular Grid (max. acc.)         AngularGrid ... Lebedev-434
Angular grid pruning method      GridPruning ... 3 (G Style)
Weight generation scheme         WeightScheme... Becke
Basis function cutoff            BFCut       ...    1.0000e-12
Integration weight cutoff        WCut        ...    1.0000e-14
Grids for H and He will be reduced by one unit

# of grid points (after initial pruning)     ...  23624 (   0.0 sec)
# of grid points (after weights+screening)   ...  23562 (   0.0 sec)
nearest neighbour list constructed           ...    0.0 sec
Grid point re-assignment to atoms done       ...    0.0 sec
Grid point division into batches done        ...    0.2 sec
Reduced shell lists constructed in    0.3 sec

Total number of grid points                  ...    23562
Total number of batches                      ...      369
Average number of points per batch           ...       63
Average number of grid points per atom       ...    11781
Average number of shells per batch           ...    38.32 (61.81%)
Average number of basis functions per batch  ...   180.19 (63.90%)
Average number of large shells per batch     ...    32.44 (84.65%)
Average number of large basis fcns per batch ...   153.41 (85.14%)
Maximum spatial batch extension              ...  18.71, 18.71, 16.84 au
Average spatial batch extension              ...   1.47,  1.48,  1.30 au

Time for grid setup =    0.290 sec

------------------------------
INITIAL GUESS: MODEL POTENTIAL
------------------------------
Loading Hartree-Fock densities                     ... done
Calculating cut-offs                               ... done
Setting up the integral package                    ... done
Initializing the effective Hamiltonian             ... done
Starting the Coulomb interaction                   ... done (   0.0 sec)
Reading the grid                                   ... done
Mapping shells                                     ... done
Starting the XC term evaluation                    ... done (   0.2 sec)
  promolecular density results
     # of electrons  =     32.999998456
     EX              =    -52.244158252
     EC              =     -1.277602704
     EX+EC           =    -53.521760956
Transforming the Hamiltonian                       ... done (   0.0 sec)
Diagonalizing the Hamiltonian                      ... done (   0.0 sec)
Back transforming the eigenvectors                 ... done (   0.0 sec)
Now organizing SCF variables                       ... done
                      ------------------
                      INITIAL GUESS DONE (   0.7 sec)
                      ------------------
--------------
SCF ITERATIONS
--------------
ITER       Energy         Delta-E        Max-DP      RMS-DP      [F,P]     Damp
               ***  Starting incremental Fock matrix formation  ***
  0   -858.0460543900   0.000000000000 0.00847646  0.00007846  0.0270072 0.7000
  1   -858.0476284674  -0.001574077396 0.00629048  0.00006166  0.0183613 0.7000
                               ***Turning on DIIS***
  2   -858.0485479475  -0.000919480133 0.01336039  0.00014056  0.0115239 0.0000
  3   -858.0504566365  -0.001908689022 0.00417039  0.00004275  0.0098558 0.0000
  4   -858.0506429811  -0.000186344597 0.00217231  0.00001874  0.0044236 0.0000
  5   -858.0507007629  -0.000057781737 0.00082648  0.00000783  0.0010924 0.0000
  6   -858.0507092479  -0.000008485063 0.00064150  0.00000709  0.0006213 0.0000
  7   -858.0507124573  -0.000003209343 0.00013475  0.00000168  0.0007818 0.0000
  8   -858.0507134036  -0.000000946327 0.00006588  0.00000083  0.0000964 0.0000
  9   -858.0507134377  -0.000000034136 0.00003723  0.00000038  0.0000797 0.0000
 10   -858.0507134591  -0.000000021392 0.00000686  0.00000008  0.0000128 0.0000
 11   -858.0507134598  -0.000000000668 0.00000199  0.00000002  0.0000061 0.0000
 12   -858.0507134599  -0.000000000133 0.00000099  0.00000001  0.0000020 0.0000
 13   -858.0507134600  -0.000000000010 0.00000094  0.00000001  0.0000004 0.0000
 14   -858.0507134600   0.000000000002 0.00000035  0.00000000  0.0000003 0.0000
                 **** Energy Check signals convergence ****

               *****************************************************
               *                     SUCCESS                       *
               *           SCF CONVERGED AFTER  15 CYCLES          *
               *****************************************************


----------------
TOTAL SCF ENERGY
----------------

Total Energy       :         -858.05071346 Eh          -23348.74694 eV

Components:
Nuclear Repulsion  :           72.86802038 Eh            1982.83964 eV
Electronic Energy  :         -930.91873384 Eh          -25331.58658 eV
One Electron Energy:        -1329.96536769 Eh          -36190.19753 eV
Two Electron Energy:          399.04663385 Eh           10858.61095 eV

Virial components:
Potential Energy   :        -1715.38266327 Eh          -46677.93533 eV
Kinetic Energy     :          857.33194981 Eh           23329.18839 eV
Virial Ratio       :            2.00083837


DFT components:
N(Alpha)           :       16.999999907235 electrons
N(Beta)            :       15.999999872830 electrons
N(Total)           :       32.999999780064 electrons
E(X)               :      -52.266499232329 Eh       
E(C)               :       -1.271348101234 Eh       
E(XC)              :      -53.537847333564 Eh       
DFET-embed. en.    :        0.000000000000 Eh       

---------------
SCF CONVERGENCE
---------------

  Last Energy change         ...   -6.8212e-12  Tolerance :   1.0000e-09
  Last MAX-Density change    ...    3.1056e-07  Tolerance :   1.0000e-08
  Last RMS-Density change    ...    2.5410e-09  Tolerance :   1.0000e-09
  Last DIIS Error            ...    1.1721e-07  Tolerance :   1.0000e-08

             **** THE GBW FILE WAS UPDATED (scl_pbe_+0001_x.gbw) ****
             **** DENSITY FILE WAS UPDATED (scl_pbe_+0001_x.scfp.tmp) ****
             **** ENERGY FILE WAS UPDATED (scl_pbe_+0001_x.en.tmp) ****
----------------------
UHF SPIN CONTAMINATION
----------------------

Warning: in a DFT calculation there is little theoretical justification to 
         calculate <S**2> as in Hartree-Fock theory. We will do it anyways
         but you should keep in mind that the values have only limited relevance

Expectation value of <S**2>     :     0.753282
Ideal value S*(S+1) for S=0.5   :     0.750000
Deviation                       :     0.003282

----------------
ORBITAL ENERGIES
----------------
                 SPIN UP ORBITALS
  NO   OCC          E(Eh)            E(eV) 
   0   1.0000    -100.705319     -2740.3311 
   1   1.0000     -88.094842     -2397.1825 
   2   1.0000      -9.226847      -251.0753 
   3   1.0000      -7.728611      -210.3062 
   4   1.0000      -7.049162      -191.8174 
   5   1.0000      -7.043000      -191.6498 
   6   1.0000      -7.037539      -191.5012 
   7   1.0000      -5.751901      -156.5172 
   8   1.0000      -5.751535      -156.5072 
   9   1.0000      -5.735957      -156.0833 
  10   1.0000      -0.831098       -22.6153 
  11   1.0000      -0.627705       -17.0807 
  12   1.0000      -0.404366       -11.0034 
  13   1.0000      -0.370003       -10.0683 
  14   1.0000      -0.350456        -9.5364 
  15   1.0000      -0.255282        -6.9466 
  16   1.0000      -0.221782        -6.0350 
  17   0.0000      -0.106050        -2.8858 
  18   0.0000      -0.012897        -0.3509 
  19   0.0000       0.014880         0.4049 
  20   0.0000       0.016521         0.4496 
  21   0.0000       0.017378         0.4729 
  22   0.0000       0.030096         0.8190 
  23   0.0000       0.044591         1.2134 
  24   0.0000       0.045384         1.2350 
  25   0.0000       0.065164         1.7732 
  26   0.0000       0.065521         1.7829 
  27   0.0000       0.083285         2.2663 
  28   0.0000       0.092759         2.5241 
  29   0.0000       0.100576         2.7368 
  30   0.0000       0.102261         2.7827 
  31   0.0000       0.104791         2.8515 
  32   0.0000       0.111068         3.0223 
  33   0.0000       0.132856         3.6152 
  34   0.0000       0.142098         3.8667 
  35   0.0000       0.143227         3.8974 
  36   0.0000       0.143453         3.9036 
  37   0.0000       0.155218         4.2237 
  38   0.0000       0.158469         4.3122 
  39   0.0000       0.188860         5.1391 
  40   0.0000       0.198609         5.4044 
  41   0.0000       0.215501         5.8641 
  42   0.0000       0.215503         5.8641 
  43   0.0000       0.217575         5.9205 
  44   0.0000       0.219717         5.9788 
  45   0.0000       0.220129         5.9900 
  46   0.0000       0.224636         6.1127 
  47   0.0000       0.227521         6.1912 
  48   0.0000       0.255722         6.9586 
  49   0.0000       0.270142         7.3510 
  50   0.0000       0.270584         7.3630 
  51   0.0000       0.294713         8.0196 
  52   0.0000       0.322248         8.7688 
  53   0.0000       0.322467         8.7748 
  54   0.0000       0.323332         8.7983 
  55   0.0000       0.331344         9.0163 
  56   0.0000       0.333922         9.0865 
  57   0.0000       0.335423         9.1273 
  58   0.0000       0.335423         9.1273 
  59   0.0000       0.391285        10.6474 
  60   0.0000       0.399630        10.8745 
  61   0.0000       0.401501        10.9254 
  62   0.0000       0.401501        10.9254 
  63   0.0000       0.409164        11.1339 
  64   0.0000       0.422582        11.4990 
  65   0.0000       0.430563        11.7162 
  66   0.0000       0.438021        11.9192 
  67   0.0000       0.448703        12.2098 
  68   0.0000       0.449023        12.2185 
  69   0.0000       0.454776        12.3751 
  70   0.0000       0.454810        12.3760 
  71   0.0000       0.476845        12.9756 
  72   0.0000       0.483060        13.1447 
  73   0.0000       0.484848        13.1934 
  74   0.0000       0.496632        13.5140 
  75   0.0000       0.496839        13.5197 
  76   0.0000       0.506184        13.7740 
  77   0.0000       0.513502        13.9731 
  78   0.0000       0.554322        15.0839 
  79   0.0000       0.557336        15.1659 
  80   0.0000       0.557336        15.1659 
  81   0.0000       0.587078        15.9752 
  82   0.0000       0.588602        16.0167 
  83   0.0000       0.588620        16.0172 
  84   0.0000       0.599649        16.3173 
  85   0.0000       0.607957        16.5433 
  86   0.0000       0.620867        16.8946 
  87   0.0000       0.620867        16.8947 
  88   0.0000       0.640777        17.4364 
  89   0.0000       0.648035        17.6339 
  90   0.0000       0.649110        17.6632 
  91   0.0000       0.682039        18.5592 
  92   0.0000       0.682079        18.5603 
  93   0.0000       0.692111        18.8333 
  94   0.0000       0.699797        19.0424 
  95   0.0000       0.703320        19.1383 
  96   0.0000       0.703322        19.1384 
  97   0.0000       0.775320        21.0975 
  98   0.0000       0.776244        21.1227 
  99   0.0000       0.786258        21.3952 
 100   0.0000       0.794597        21.6221 
 101   0.0000       0.795047        21.6343 
 102   0.0000       0.819892        22.3104 
 103   0.0000       0.825071        22.4513 
 104   0.0000       0.831342        22.6220 
 105   0.0000       0.832608        22.6564 
 106   0.0000       0.832608        22.6564 
 107   0.0000       0.853058        23.2129 
 108   0.0000       0.864218        23.5166 
 109   0.0000       0.865392        23.5485 
 110   0.0000       0.869022        23.6473 
 111   0.0000       0.897892        24.4329 
 112   0.0000       0.898077        24.4379 
 113   0.0000       0.935770        25.4636 
 114   0.0000       0.935773        25.4637 
 115   0.0000       0.954741        25.9798 
 116   0.0000       0.980649        26.6848 
 117   0.0000       0.983995        26.7759 
 118   0.0000       0.988652        26.9026 
 119   0.0000       1.002932        27.2912 
 120   0.0000       1.005984        27.3742 
 121   0.0000       1.026929        27.9441 
 122   0.0000       1.042635        28.3715 
 123   0.0000       1.051593        28.6153 
 124   0.0000       1.104348        30.0508 
 125   0.0000       1.255707        34.1695 
 126   0.0000       1.276328        34.7306 
 127   0.0000       1.289937        35.1010 
 128   0.0000       1.289941        35.1011 
 129   0.0000       1.307755        35.5858 
 130   0.0000       1.307763        35.5860 
 131   0.0000       1.319944        35.9175 
 132   0.0000       1.320029        35.9198 
 133   0.0000       1.331092        36.2208 
 134   0.0000       1.442540        39.2535 
 135   0.0000       1.464300        39.8456 
 136   0.0000       1.486996        40.4632 
 137   0.0000       1.580960        43.0201 
 138   0.0000       1.581746        43.0415 
 139   0.0000       1.632954        44.4349 
 140   0.0000       1.644169        44.7401 
 141   0.0000       1.741311        47.3835 
 142   0.0000       1.823007        49.6065 
 143   0.0000       1.827055        49.7167 
 144   0.0000       1.838574        50.0302 
 145   0.0000       1.898273        51.6546 
 146   0.0000       2.047974        55.7282 
 147   0.0000       2.048079        55.7311 
 148   0.0000       2.163658        58.8761 
 149   0.0000       2.180976        59.3474 
 150   0.0000       2.181084        59.3503 
 151   0.0000       2.183509        59.4163 
 152   0.0000       2.271176        61.8018 
 153   0.0000       2.308695        62.8228 
 154   0.0000       2.324744        63.2595 
 155   0.0000       2.446552        66.5741 
 156   0.0000       2.446592        66.5752 
 157   0.0000       2.452361        66.7321 
 158   0.0000       2.452882        66.7463 
 159   0.0000       2.491575        67.7992 
 160   0.0000       2.491577        67.7993 
 161   0.0000       2.621522        71.3352 
 162   0.0000       2.637376        71.7667 
 163   0.0000       2.723536        74.1112 
 164   0.0000       2.825769        76.8931 
 165   0.0000       2.825773        76.8932 
 166   0.0000       2.890845        78.6639 
 167   0.0000       2.890851        78.6641 
 168   0.0000       2.997195        81.5578 
 169   0.0000       3.139840        85.4394 
 170   0.0000       3.169794        86.2545 
 171   0.0000       3.170482        86.2732 
 172   0.0000       3.219441        87.6055 
 173   0.0000       3.219447        87.6056 
 174   0.0000       3.396127        92.4133 
 175   0.0000       3.397246        92.4438 
 176   0.0000       3.420738        93.0830 
 177   0.0000       3.447785        93.8190 
 178   0.0000       3.465080        94.2896 
 179   0.0000       3.472882        94.5019 
 180   0.0000       3.472917        94.5029 
 181   0.0000       3.534850        96.1882 
 182   0.0000       3.604992        98.0968 
 183   0.0000       3.624131        98.6176 
 184   0.0000       3.655853        99.4808 
 185   0.0000       3.656419        99.4962 
 186   0.0000       3.744716       101.8989 
 187   0.0000       3.773611       102.6852 
 188   0.0000       3.946810       107.3982 
 189   0.0000       4.092592       111.3651 
 190   0.0000       4.142799       112.7313 
 191   0.0000       4.158255       113.1519 
 192   0.0000       4.658456       126.7630 
 193   0.0000       4.669823       127.0723 
 194   0.0000       4.852230       132.0359 
 195   0.0000       5.010366       136.3390 
 196   0.0000       5.048527       137.3774 
 197   0.0000       5.048597       137.3793 
 198   0.0000       5.053547       137.5140 
 199   0.0000       5.054776       137.5475 
 200   0.0000       5.113447       139.1440 
 201   0.0000       5.113481       139.1449 
 202   0.0000       5.122707       139.3959 
 203   0.0000       5.122707       139.3959 
 204   0.0000       5.190301       141.2353 
 205   0.0000       5.211950       141.8244 
 206   0.0000       5.363495       145.9481 
 207   0.0000       5.509719       149.9271 
 208   0.0000       5.509728       149.9273 
 209   0.0000       5.641040       153.5005 
 210   0.0000       5.641041       153.5005 
 211   0.0000       5.643203       153.5594 
 212   0.0000       5.643210       153.5596 
 213   0.0000       5.705693       155.2598 
 214   0.0000       5.705737       155.2610 
 215   0.0000       5.728338       155.8760 
 216   0.0000       5.753128       156.5506 
 217   0.0000       5.772184       157.0691 
 218   0.0000       5.772190       157.0693 
 219   0.0000       5.924375       161.2104 
 220   0.0000       5.934779       161.4935 
 221   0.0000       6.171575       167.9371 
 222   0.0000       6.245490       169.9484 
 223   0.0000       6.245750       169.9555 
 224   0.0000       6.665375       181.3741 
 225   0.0000       6.690527       182.0585 
 226   0.0000       6.708759       182.5546 
 227   0.0000       6.888301       187.4402 
 228   0.0000       8.144451       221.6218 
 229   0.0000       8.144542       221.6242 
 230   0.0000       8.170497       222.3305 
 231   0.0000       8.170505       222.3308 
 232   0.0000       8.297133       225.7765 
 233   0.0000       8.297415       225.7841 
 234   0.0000       8.683277       236.2840 
 235   0.0000       8.708069       236.9586 
 236   0.0000       8.878644       241.6002 
 237   0.0000       9.054456       246.3843 
 238   0.0000       9.054576       246.3875 
 239   0.0000       9.075998       246.9705 
 240   0.0000       9.075998       246.9705 
 241   0.0000       9.293057       252.8769 
 242   0.0000       9.293103       252.8782 
 243   0.0000       9.811988       266.9978 
 244   0.0000       9.824545       267.3395 
 245   0.0000       9.871618       268.6204 
 246   0.0000      11.574400       314.9554 
 247   0.0000      11.574426       314.9561 
 248   0.0000      11.656666       317.1940 
 249   0.0000      11.656980       317.2025 
 250   0.0000      11.697953       318.3175 
 251   0.0000      11.715323       318.7902 
 252   0.0000      12.082805       328.7898 
 253   0.0000      12.798809       348.2733 
 254   0.0000      12.798810       348.2733 
 255   0.0000      12.834348       349.2404 
 256   0.0000      12.834432       349.2427 
 257   0.0000      12.954004       352.4964 
 258   0.0000      12.960232       352.6658 
 259   0.0000      13.140099       357.5603 
 260   0.0000      16.809409       457.4073 
 261   0.0000      16.809523       457.4104 
 262   0.0000      16.886319       459.5001 
 263   0.0000      16.901711       459.9189 
 264   0.0000      17.353099       472.2018 
 265   0.0000      17.546220       477.4569 
 266   0.0000      17.546254       477.4578 
 267   0.0000      17.696220       481.5386 
 268   0.0000      17.701840       481.6915 
 269   0.0000      18.139090       493.5897 
 270   0.0000      28.958862       788.0107 
 271   0.0000      38.572714      1049.6169 
 272   0.0000      62.316580      1695.7204 
 273   0.0000      62.316682      1695.7231 
 274   0.0000      62.365053      1697.0394 
 275   0.0000      62.375679      1697.3285 
 276   0.0000      62.638663      1704.4847 
 277   0.0000      65.737096      1788.7973 
 278   0.0000      65.737101      1788.7975 
 279   0.0000      65.827959      1791.2698 
 280   0.0000      65.831713      1791.3720 
 281   0.0000      66.093098      1798.4846 

                 SPIN DOWN ORBITALS
  NO   OCC          E(Eh)            E(eV) 
   0   1.0000    -100.704067     -2740.2970 
   1   1.0000     -88.090901     -2397.0753 
   2   1.0000      -9.225650      -251.0427 
   3   1.0000      -7.724601      -210.1971 
   4   1.0000      -7.048566      -191.8012 
   5   1.0000      -7.039314      -191.5495 
   6   1.0000      -7.036794      -191.4809 
   7   1.0000      -5.749067      -156.4401 
   8   1.0000      -5.740299      -156.2015 
   9   1.0000      -5.733571      -156.0184 
  10   1.0000      -0.822802       -22.3896 
  11   1.0000      -0.603368       -16.4185 
  12   1.0000      -0.393936       -10.7195 
  13   1.0000      -0.347466        -9.4550 
  14   1.0000      -0.346888        -9.4393 
  15   1.0000      -0.212804        -5.7907 
  16   0.0000      -0.203575        -5.5395 
  17   0.0000      -0.095663        -2.6031 
  18   0.0000      -0.008968        -0.2440 
  19   0.0000       0.017876         0.4864 
  20   0.0000       0.018946         0.5155 
  21   0.0000       0.019884         0.5411 
  22   0.0000       0.032283         0.8785 
  23   0.0000       0.045737         1.2446 
  24   0.0000       0.047722         1.2986 
  25   0.0000       0.072518         1.9733 
  26   0.0000       0.073668         2.0046 
  27   0.0000       0.085372         2.3231 
  28   0.0000       0.101917         2.7733 
  29   0.0000       0.103639         2.8202 
  30   0.0000       0.106119         2.8877 
  31   0.0000       0.111964         3.0467 
  32   0.0000       0.112999         3.0749 
  33   0.0000       0.136293         3.7087 
  34   0.0000       0.145671         3.9639 
  35   0.0000       0.147131         4.0036 
  36   0.0000       0.148108         4.0302 
  37   0.0000       0.159314         4.3352 
  38   0.0000       0.160748         4.3742 
  39   0.0000       0.199853         5.4383 
  40   0.0000       0.201495         5.4830 
  41   0.0000       0.220586         6.0025 
  42   0.0000       0.220712         6.0059 
  43   0.0000       0.221032         6.0146 
  44   0.0000       0.228067         6.2060 
  45   0.0000       0.230596         6.2748 
  46   0.0000       0.234570         6.3830 
  47   0.0000       0.237005         6.4492 
  48   0.0000       0.259304         7.0560 
  49   0.0000       0.274432         7.4677 
  50   0.0000       0.275506         7.4969 
  51   0.0000       0.300124         8.1668 
  52   0.0000       0.330274         8.9872 
  53   0.0000       0.331322         9.0157 
  54   0.0000       0.333186         9.0665 
  55   0.0000       0.335173         9.1205 
  56   0.0000       0.338392         9.2081 
  57   0.0000       0.338522         9.2116 
  58   0.0000       0.338726         9.2172 
  59   0.0000       0.400831        10.9072 
  60   0.0000       0.403117        10.9694 
  61   0.0000       0.407661        11.0930 
  62   0.0000       0.407781        11.0963 
  63   0.0000       0.413945        11.2640 
  64   0.0000       0.432235        11.7617 
  65   0.0000       0.435491        11.8503 
  66   0.0000       0.443223        12.0607 
  67   0.0000       0.455042        12.3823 
  68   0.0000       0.456165        12.4129 
  69   0.0000       0.460670        12.5355 
  70   0.0000       0.461010        12.5447 
  71   0.0000       0.486112        13.2278 
  72   0.0000       0.487739        13.2721 
  73   0.0000       0.488673        13.2975 
  74   0.0000       0.508628        13.8405 
  75   0.0000       0.511110        13.9080 
  76   0.0000       0.514049        13.9880 
  77   0.0000       0.514536        14.0012 
  78   0.0000       0.559157        15.2154 
  79   0.0000       0.561097        15.2682 
  80   0.0000       0.561178        15.2704 
  81   0.0000       0.593150        16.1404 
  82   0.0000       0.596932        16.2433 
  83   0.0000       0.597143        16.2491 
  84   0.0000       0.609235        16.5781 
  85   0.0000       0.611826        16.6486 
  86   0.0000       0.627349        17.0710 
  87   0.0000       0.627399        17.0724 
  88   0.0000       0.645485        17.5645 
  89   0.0000       0.652602        17.7582 
  90   0.0000       0.653537        17.7836 
  91   0.0000       0.687045        18.6954 
  92   0.0000       0.687333        18.7033 
  93   0.0000       0.700941        19.0736 
  94   0.0000       0.702187        19.1075 
  95   0.0000       0.708678        19.2841 
  96   0.0000       0.708775        19.2867 
  97   0.0000       0.786508        21.4020 
  98   0.0000       0.787913        21.4402 
  99   0.0000       0.789746        21.4901 
 100   0.0000       0.802938        21.8490 
 101   0.0000       0.803933        21.8761 
 102   0.0000       0.825981        22.4761 
 103   0.0000       0.828548        22.5459 
 104   0.0000       0.833666        22.6852 
 105   0.0000       0.834953        22.7202 
 106   0.0000       0.834966        22.7206 
 107   0.0000       0.869545        23.6615 
 108   0.0000       0.869953        23.6726 
 109   0.0000       0.870485        23.6871 
 110   0.0000       0.871596        23.7173 
 111   0.0000       0.904669        24.6173 
 112   0.0000       0.905578        24.6420 
 113   0.0000       0.938229        25.5305 
 114   0.0000       0.938255        25.5312 
 115   0.0000       0.960103        26.1257 
 116   0.0000       0.989683        26.9306 
 117   0.0000       0.990351        26.9488 
 118   0.0000       0.997671        27.1480 
 119   0.0000       1.016029        27.6476 
 120   0.0000       1.018092        27.7037 
 121   0.0000       1.032957        28.1082 
 122   0.0000       1.052639        28.6438 
 123   0.0000       1.052718        28.6459 
 124   0.0000       1.114174        30.3182 
 125   0.0000       1.279492        34.8167 
 126   0.0000       1.282080        34.8872 
 127   0.0000       1.301007        35.4022 
 128   0.0000       1.301094        35.4046 
 129   0.0000       1.325684        36.0737 
 130   0.0000       1.326211        36.0880 
 131   0.0000       1.336530        36.3688 
 132   0.0000       1.337054        36.3831 
 133   0.0000       1.337381        36.3920 
 134   0.0000       1.468052        39.9477 
 135   0.0000       1.473698        40.1014 
 136   0.0000       1.498434        40.7745 
 137   0.0000       1.598992        43.5108 
 138   0.0000       1.601591        43.5815 
 139   0.0000       1.645783        44.7840 
 140   0.0000       1.646097        44.7926 
 141   0.0000       1.749551        47.6077 
 142   0.0000       1.830789        49.8183 
 143   0.0000       1.839908        50.0664 
 144   0.0000       1.842299        50.1315 
 145   0.0000       1.902282        51.7637 
 146   0.0000       2.063838        56.1599 
 147   0.0000       2.065421        56.2030 
 148   0.0000       2.185795        59.4785 
 149   0.0000       2.186517        59.4982 
 150   0.0000       2.198522        59.8248 
 151   0.0000       2.200703        59.8842 
 152   0.0000       2.283254        62.1305 
 153   0.0000       2.327361        63.3307 
 154   0.0000       2.328172        63.3528 
 155   0.0000       2.468803        67.1795 
 156   0.0000       2.471027        67.2401 
 157   0.0000       2.473074        67.2958 
 158   0.0000       2.473719        67.3133 
 159   0.0000       2.535641        68.9983 
 160   0.0000       2.536036        69.0091 
 161   0.0000       2.638147        71.7876 
 162   0.0000       2.638443        71.7957 
 163   0.0000       2.736134        74.4540 
 164   0.0000       2.836007        77.1717 
 165   0.0000       2.836008        77.1717 
 166   0.0000       2.902882        78.9914 
 167   0.0000       2.903080        78.9968 
 168   0.0000       3.003979        81.7424 
 169   0.0000       3.160867        86.0116 
 170   0.0000       3.184425        86.6526 
 171   0.0000       3.186210        86.7012 
 172   0.0000       3.263389        88.8013 
 173   0.0000       3.264245        88.8246 
 174   0.0000       3.417859        93.0047 
 175   0.0000       3.420120        93.0662 
 176   0.0000       3.449882        93.8761 
 177   0.0000       3.456585        94.0584 
 178   0.0000       3.470434        94.4353 
 179   0.0000       3.485266        94.8389 
 180   0.0000       3.485306        94.8400 
 181   0.0000       3.548968        96.5723 
 182   0.0000       3.625122        98.6446 
 183   0.0000       3.627006        98.6959 
 184   0.0000       3.667533        99.7986 
 185   0.0000       3.668681        99.8299 
 186   0.0000       3.778624       102.8216 
 187   0.0000       3.779512       102.8458 
 188   0.0000       3.950807       107.5069 
 189   0.0000       4.097953       111.5110 
 190   0.0000       4.158694       113.1638 
 191   0.0000       4.159349       113.1816 
 192   0.0000       4.669102       127.0527 
 193   0.0000       4.671422       127.1159 
 194   0.0000       4.863124       132.3323 
 195   0.0000       5.017074       136.5215 
 196   0.0000       5.073212       138.0491 
 197   0.0000       5.075970       138.1242 
 198   0.0000       5.077601       138.1685 
 199   0.0000       5.078136       138.1831 
 200   0.0000       5.153691       140.2391 
 201   0.0000       5.153977       140.2468 
 202   0.0000       5.176116       140.8493 
 203   0.0000       5.176236       140.8525 
 204   0.0000       5.213797       141.8746 
 205   0.0000       5.215615       141.9241 
 206   0.0000       5.368676       146.0891 
 207   0.0000       5.529155       150.4559 
 208   0.0000       5.532487       150.5466 
 209   0.0000       5.652728       153.8185 
 210   0.0000       5.652740       153.8189 
 211   0.0000       5.653871       153.8496 
 212   0.0000       5.653871       153.8496 
 213   0.0000       5.712382       155.4418 
 214   0.0000       5.712869       155.4551 
 215   0.0000       5.756568       156.6442 
 216   0.0000       5.756814       156.6509 
 217   0.0000       5.783473       157.3763 
 218   0.0000       5.783652       157.3812 
 219   0.0000       5.932783       161.4392 
 220   0.0000       5.935182       161.5045 
 221   0.0000       6.189782       168.4325 
 222   0.0000       6.257947       170.2874 
 223   0.0000       6.259577       170.3317 
 224   0.0000       6.674966       181.6351 
 225   0.0000       6.710857       182.6117 
 226   0.0000       6.712774       182.6639 
 227   0.0000       6.894668       187.6135 
 228   0.0000       8.188934       222.8322 
 229   0.0000       8.189096       222.8366 
 230   0.0000       8.202835       223.2105 
 231   0.0000       8.203109       223.2179 
 232   0.0000       8.318457       226.3567 
 233   0.0000       8.320495       226.4122 
 234   0.0000       8.707989       236.9564 
 235   0.0000       8.712136       237.0693 
 236   0.0000       8.888981       241.8815 
 237   0.0000       9.067899       246.7501 
 238   0.0000       9.068017       246.7533 
 239   0.0000       9.085536       247.2300 
 240   0.0000       9.085551       247.2304 
 241   0.0000       9.300428       253.0775 
 242   0.0000       9.300787       253.0873 
 243   0.0000       9.824211       267.3304 
 244   0.0000       9.824913       267.3495 
 245   0.0000       9.874527       268.6995 
 246   0.0000      11.582788       315.1837 
 247   0.0000      11.582999       315.1894 
 248   0.0000      11.661870       317.3356 
 249   0.0000      11.662533       317.3537 
 250   0.0000      11.704842       318.5049 
 251   0.0000      11.714236       318.7606 
 252   0.0000      12.084801       328.8442 
 253   0.0000      12.801411       348.3441 
 254   0.0000      12.801413       348.3442 
 255   0.0000      12.835881       349.2821 
 256   0.0000      12.835894       349.2824 
 257   0.0000      12.956272       352.5581 
 258   0.0000      12.959816       352.6545 
 259   0.0000      13.140745       357.5779 
 260   0.0000      16.819496       457.6818 
 261   0.0000      16.819917       457.6932 
 262   0.0000      16.896770       459.7845 
 263   0.0000      16.902218       459.9327 
 264   0.0000      17.357496       472.3215 
 265   0.0000      17.550261       477.5669 
 266   0.0000      17.550353       477.5694 
 267   0.0000      17.700155       481.6457 
 268   0.0000      17.702012       481.6962 
 269   0.0000      18.140828       493.6370 
 270   0.0000      28.973223       788.4015 
 271   0.0000      38.576886      1049.7304 
 272   0.0000      62.329529      1696.0727 
 273   0.0000      62.329639      1696.0757 
 274   0.0000      62.377898      1697.3889 
 275   0.0000      62.378026      1697.3924 
 276   0.0000      62.644414      1704.6412 
 277   0.0000      65.741330      1788.9125 
 278   0.0000      65.741365      1788.9135 
 279   0.0000      65.832033      1791.3807 
 280   0.0000      65.832238      1791.3863 
 281   0.0000      66.094743      1798.5294 

                    ********************************
                    * MULLIKEN POPULATION ANALYSIS *
                    ********************************

--------------------------------------------
MULLIKEN ATOMIC CHARGES AND SPIN POPULATIONS
--------------------------------------------
   0 S :   -0.107614    0.795898
   1 Cl:    0.107614    0.204102
Sum of atomic charges         :    0.0000000
Sum of atomic spin populations:    1.0000000

-----------------------------------------------------
MULLIKEN REDUCED ORBITAL CHARGES AND SPIN POPULATIONS
-----------------------------------------------------
CHARGE
  0 S s       :     6.027700  s :     6.027700
      pz      :     2.857138  p :     9.931867
      px      :     3.144155
      py      :     3.930574
      dz2     :     0.042269  d :     0.128668
      dxz     :     0.041667
      dyz     :     0.043770
      dx2y2   :     0.000956
      dxy     :     0.000006
      f0      :     0.006206  f :     0.018525
      f+1     :     0.007340
      f-1     :     0.004587
      f+2     :     0.000048
      f-2     :    -0.000000
      f+3     :     0.000168
      f-3     :     0.000176
      g0      :     0.001278  g :     0.001094
      g+1     :     0.000480
      g-1     :    -0.000674
      g+2     :     0.000001
      g-2     :    -0.000000
      g+3     :     0.000003
      g-3     :     0.000004
      g+4     :     0.000001
      g-4     :     0.000000
      h0      :     0.000168  h :    -0.000240
      h+1     :    -0.000020
      h-1     :    -0.000391
      h+2     :    -0.000000
      h-2     :    -0.000000
      h+3     :     0.000001
      h-3     :     0.000001
      h+4     :     0.000000
      h-4     :     0.000000
      h+5     :     0.000000
      h-5     :     0.000000
  1 Cls       :     5.890314  s :     5.890314
      pz      :     3.154077  p :    10.864086
      px      :     3.762247
      py      :     3.947762
      dz2     :     0.018874  d :     0.124313
      dxz     :     0.037917
      dyz     :     0.067448
      dx2y2   :     0.000073
      dxy     :     0.000002
      f0      :     0.001331  f :     0.014481
      f+1     :     0.005802
      f-1     :     0.007280
      f+2     :     0.000006
      f-2     :     0.000000
      f+3     :     0.000028
      f-3     :     0.000033
      g0      :    -0.000314  g :    -0.000403
      g+1     :     0.000210
      g-1     :    -0.000327
      g+2     :    -0.000006
      g-2     :    -0.000000
      g+3     :     0.000015
      g-3     :     0.000020
      g+4     :     0.000000
      g-4     :     0.000000
      h0      :    -0.000105  h :    -0.000404
      h+1     :    -0.000029
      h-1     :    -0.000278
      h+2     :    -0.000003
      h-2     :    -0.000000
      h+3     :     0.000004
      h-3     :     0.000006
      h+4     :     0.000000
      h-4     :     0.000000
      h+5     :    -0.000000
      h-5     :    -0.000000

SPIN
  0 S s       :     0.003578  s :     0.003578
      pz      :     0.007956  p :     0.792751
      px      :     0.786136
      py      :    -0.001342
      dz2     :     0.000856  d :     0.005023
      dxz     :     0.003694
      dyz     :    -0.000325
      dx2y2   :     0.000798
      dxy     :    -0.000000
      f0      :    -0.000643  f :    -0.003180
      f+1     :    -0.002561
      f-1     :    -0.000345
      f+2     :     0.000042
      f-2     :     0.000000
      f+3     :     0.000160
      f-3     :     0.000167
      g0      :    -0.000022  g :    -0.001869
      g+1     :    -0.001579
      g-1     :    -0.000273
      g+2     :    -0.000001
      g-2     :     0.000000
      g+3     :     0.000003
      g-3     :     0.000003
      g+4     :    -0.000001
      g-4     :     0.000000
      h0      :     0.000010  h :    -0.000404
      h+1     :    -0.000374
      h-1     :    -0.000040
      h+2     :    -0.000001
      h-2     :    -0.000000
      h+3     :     0.000000
      h-3     :     0.000001
      h+4     :    -0.000000
      h-4     :    -0.000000
      h+5     :    -0.000000
      h-5     :    -0.000000
  1 Cls       :     0.003267  s :     0.003267
      pz      :    -0.016444  p :     0.175681
      px      :     0.189639
      py      :     0.002486
      dz2     :     0.000372  d :     0.020607
      dxz     :     0.021203
      dyz     :    -0.001031
      dx2y2   :     0.000063
      dxy     :     0.000000
      f0      :     0.000133  f :     0.003466
      f+1     :     0.003001
      f-1     :     0.000272
      f+2     :     0.000004
      f-2     :     0.000000
      f+3     :     0.000026
      f-3     :     0.000030
      g0      :     0.000044  g :     0.000807
      g+1     :     0.000487
      g-1     :     0.000251
      g+2     :    -0.000005
      g-2     :    -0.000000
      g+3     :     0.000013
      g-3     :     0.000017
      g+4     :    -0.000000
      g-4     :     0.000000
      h0      :     0.000004  h :     0.000274
      h+1     :     0.000138
      h-1     :     0.000122
      h+2     :    -0.000002
      h-2     :    -0.000000
      h+3     :     0.000005
      h-3     :     0.000006
      h+4     :    -0.000000
      h-4     :     0.000000
      h+5     :     0.000000
      h-5     :     0.000000


                     *******************************
                     * LOEWDIN POPULATION ANALYSIS *
                     *******************************

-------------------------------------------
LOEWDIN ATOMIC CHARGES AND SPIN POPULATIONS
-------------------------------------------
   0 S :    0.140202    0.659940
   1 Cl:   -0.140202    0.340060

----------------------------------------------------
LOEWDIN REDUCED ORBITAL CHARGES AND SPIN POPULATIONS
----------------------------------------------------
CHARGE
  0 S s       :     5.388366  s :     5.388366
      pz      :     2.950731  p :     9.406121
      px      :     2.937078
      py      :     3.518312
      dz2     :     0.221821  d :     0.505086
      dxz     :     0.129886
      dyz     :     0.152514
      dx2y2   :     0.000861
      dxy     :     0.000004
      f0      :     0.113216  f :     0.291998
      f+1     :     0.082228
      f-1     :     0.096132
      f+2     :     0.000051
      f-2     :     0.000001
      f+3     :     0.000178
      f-3     :     0.000192
      g0      :     0.057633  g :     0.175228
      g+1     :     0.052109
      g-1     :     0.065474
      g+2     :     0.000003
      g-2     :     0.000000
      g+3     :     0.000003
      g-3     :     0.000004
      g+4     :     0.000001
      g-4     :     0.000000
      h0      :     0.026890  h :     0.092999
      h+1     :     0.029853
      h-1     :     0.036252
      h+2     :     0.000002
      h-2     :     0.000000
      h+3     :     0.000001
      h-3     :     0.000001
      h+4     :     0.000000
      h-4     :     0.000000
      h+5     :     0.000000
      h-5     :     0.000000
  1 Cls       :     5.496825  s :     5.496825
      pz      :     3.325032  p :    10.509664
      px      :     3.515475
      py      :     3.669157
      dz2     :     0.227100  d :     0.549431
      dxz     :     0.111910
      dyz     :     0.210348
      dx2y2   :     0.000073
      dxy     :     0.000002
      f0      :     0.114234  f :     0.315266
      f+1     :     0.071207
      f-1     :     0.129760
      f+2     :     0.000025
      f-2     :     0.000001
      f+3     :     0.000019
      f-3     :     0.000021
      g0      :     0.053998  g :     0.181267
      g+1     :     0.045580
      g-1     :     0.081640
      g+2     :     0.000028
      g-2     :     0.000000
      g+3     :     0.000009
      g-3     :     0.000012
      g+4     :     0.000000
      g-4     :     0.000000
      h0      :     0.023089  h :     0.087748
      h+1     :     0.024443
      h-1     :     0.040163
      h+2     :     0.000032
      h-2     :     0.000000
      h+3     :     0.000009
      h-3     :     0.000011
      h+4     :     0.000000
      h-4     :     0.000000
      h+5     :     0.000000
      h-5     :     0.000000

SPIN
  0 S s       :     0.002107  s :     0.002107
      pz      :     0.004221  p :     0.605836
      px      :     0.599366
      py      :     0.002250
      dz2     :     0.001571  d :     0.021627
      dxz     :     0.020253
      dyz     :    -0.000922
      dx2y2   :     0.000724
      dxy     :    -0.000000
      f0      :    -0.001207  f :     0.011973
      f+1     :     0.012930
      f-1     :    -0.000149
      f+2     :     0.000045
      f-2     :    -0.000000
      f+3     :     0.000171
      f-3     :     0.000182
      g0      :    -0.000170  g :     0.012092
      g+1     :     0.012380
      g-1     :    -0.000123
      g+2     :     0.000000
      g-2     :    -0.000000
      g+3     :     0.000002
      g-3     :     0.000002
      g+4     :    -0.000001
      g-4     :     0.000000
      h0      :    -0.000100  h :     0.006305
      h+1     :     0.006343
      h-1     :     0.000060
      h+2     :     0.000001
      h-2     :    -0.000000
      h+3     :     0.000000
      h-3     :     0.000000
      h+4     :    -0.000000
      h-4     :    -0.000000
      h+5     :    -0.000000
      h-5     :    -0.000000
  1 Cls       :     0.000378  s :     0.000378
      pz      :    -0.008656  p :     0.145983
      px      :     0.154082
      py      :     0.000557
      dz2     :     0.000626  d :     0.075856
      dxz     :     0.078042
      dyz     :    -0.002872
      dx2y2   :     0.000061
      dxy     :    -0.000000
      f0      :     0.000460  f :     0.059110
      f+1     :     0.058466
      f-1     :     0.000130
      f+2     :     0.000018
      f-2     :    -0.000000
      f+3     :     0.000018
      f-3     :     0.000019
      g0      :     0.000071  g :     0.039992
      g+1     :     0.039393
      g-1     :     0.000488
      g+2     :     0.000022
      g-2     :    -0.000000
      g+3     :     0.000008
      g-3     :     0.000010
      g+4     :    -0.000000
      g-4     :     0.000000
      h0      :    -0.000190  h :     0.018740
      h+1     :     0.018528
      h-1     :     0.000356
      h+2     :     0.000027
      h-2     :    -0.000000
      h+3     :     0.000009
      h-3     :     0.000011
      h+4     :    -0.000000
      h-4     :     0.000000
      h+5     :    -0.000000
      h-5     :    -0.000000


                      *****************************
                      * MAYER POPULATION ANALYSIS *
                      *****************************

  NA   - Mulliken gross atomic population
  ZA   - Total nuclear charge
  QA   - Mulliken gross atomic charge
  VA   - Mayer's total valence
  BVA  - Mayer's bonded valence
  FA   - Mayer's free valence

  ATOM       NA         ZA         QA         VA         BVA        FA
  0 S     16.1076    16.0000    -0.1076     2.1102     1.4703     0.6398
  1 Cl    16.8924    17.0000     0.1076     1.5241     1.4703     0.0537

  Mayer bond orders larger than 0.1
B(  0-S ,  1-Cl) :   1.4703 

-------
TIMINGS
-------

Total SCF time: 0 days 0 hours 8 min 49 sec 

Total time                  ....     529.477 sec
Sum of individual times     ....     528.826 sec  ( 99.9%)

Fock matrix formation       ....     526.916 sec  ( 99.5%)
  XC integration            ....       7.270 sec  (  1.4% of F)
    Basis function eval.    ....       0.684 sec  (  9.4% of XC)
    Density eval.           ....       1.424 sec  ( 19.6% of XC)
    XC-Functional eval.     ....       0.134 sec  (  1.8% of XC)
    XC-Potential eval.      ....       4.386 sec  ( 60.3% of XC)
Diagonalization             ....       0.677 sec  (  0.1%)
Density matrix formation    ....       0.013 sec  (  0.0%)
Population analysis         ....       0.079 sec  (  0.0%)
Initial guess               ....       0.381 sec  (  0.1%)
Orbital Transformation      ....       0.000 sec  (  0.0%)
Orbital Orthonormalization  ....       0.000 sec  (  0.0%)
DIIS solution               ....       0.469 sec  (  0.1%)
Grid generation             ....       0.290 sec  (  0.1%)

-------------------------   --------------------
FINAL SINGLE POINT ENERGY      -858.050713459958
-------------------------   --------------------


                            ***************************************
                            *     ORCA property calculations      *
                            ***************************************

                                    ---------------------
                                    Active property flags
                                    ---------------------
   (+) Dipole Moment


------------------------------------------------------------------------------
                       ORCA ELECTRIC PROPERTIES CALCULATION
------------------------------------------------------------------------------

Dipole Moment Calculation                       ... on
Quadrupole Moment Calculation                   ... off
Polarizability Calculation                      ... off
GBWName                                         ... scl_pbe_+0001_x.gbw
Electron density file                           ... scl_pbe_+0001_x.scfp.tmp
The origin for moment calculation is the CENTER OF MASS  = ( 0.000000,  0.000000  1.960187)

-------------
DIPOLE MOMENT
-------------
                                X             Y             Z
Electronic contribution:      0.02902       0.00000       1.29960
Nuclear contribution   :      0.00000       0.00000      -1.22898
                        -----------------------------------------
Total Dipole Moment    :      0.02902       0.00000       0.07061
                        -----------------------------------------
Magnitude (a.u.)       :      0.07634
Magnitude (Debye)      :      0.19405



--------------------
Rotational spectrum 
--------------------
 
Rotational constants in cm-1:     0.000000     0.256627     0.256627 
Rotational constants in MHz :     0.000000  7693.471946  7693.471946 

 Dipole components along the rotational axes: 
x,y,z [a.u.] :     0.070615     0.000000     0.029018 
x,y,z [Debye]:     0.179488     0.000000     0.073759 

 

Timings for individual modules:

Sum of individual times         ...      531.709 sec (=   8.862 min)
GTO integral calculation        ...        1.925 sec (=   0.032 min)   0.4 %
SCF iterations                  ...      529.784 sec (=   8.830 min)  99.6 %
                             ****ORCA TERMINATED NORMALLY****
TOTAL RUN TIME: 0 days 0 hours 8 minutes 53 seconds 175 msec
