
                                 *****************
                                 * O   R   C   A *
                                 *****************

           --- An Ab Initio, DFT and Semiempirical electronic structure package ---

                  #######################################################
                  #                        -***-                        #
                  #          Department of theory and spectroscopy      #
                  #               Directorship: Frank Neese             #
                  #        Max Planck Institute fuer Kohlenforschung    #
                  #                Kaiser Wilhelm Platz 1               #
                  #                 D-45470 Muelheim/Ruhr               #
                  #                      Germany                        #
                  #                                                     #
                  #                  All rights reserved                #
                  #                        -***-                        #
                  #######################################################


                         Program Version 4.1.2  - RELEASE  -


 With contributions from (in alphabetic order):
   Daniel Aravena         : Magnetic Properties
   Michael Atanasov       : Ab Initio Ligand Field Theory
   Alexander A. Auer      : GIAO ZORA
   Ute Becker             : Parallelization
   Giovanni Bistoni       : ED, Open-shell LED
   Martin Brehm           : Molecular dynamics
   Dmytro Bykov           : SCF Hessian
   Vijay G. Chilkuri      : MRCI spin determinant printing
   Dipayan Datta          : RHF DLPNO-CCSD density
   Achintya Kumar Dutta   : EOM-CC, STEOM-CC
   Dmitry Ganyushin       : Spin-Orbit,Spin-Spin,Magnetic field MRCI
   Miquel Garcia          : C-PCM Hessian
   Yang Guo               : DLPNO-NEVPT2, CIM, IAO-localization
   Andreas Hansen         : Spin unrestricted coupled pair/coupled cluster methods
   Benjamin Helmich-Paris : CASSCF linear response (MC-RPA)
   Lee Huntington         : MR-EOM, pCC
   Robert Izsak           : Overlap fitted RIJCOSX, COSX-SCS-MP3, EOM
   Christian Kollmar      : KDIIS, OOCD, Brueckner-CCSD(T), CCSD density
   Simone Kossmann        : Meta GGA functionals, TD-DFT gradient, OOMP2, MP2 Hessian
   Martin Krupicka        : AUTO-CI
   Lucas Lang             : DCDCAS
   Dagmar Lenk            : GEPOL surface, SMD
   Dimitrios Liakos       : Extrapolation schemes; parallel MDCI
   Dimitrios Manganas     : ROCIS; embedding schemes
   Dimitrios Pantazis     : SARC Basis sets
   Taras Petrenko         : DFT Hessian,TD-DFT gradient, ASA, ECA, R-Raman, ABS, FL, XAS/XES, NRVS
   Peter Pinski           : DLPNO-MP2, DLPNO-MP2 Gradient
   Christoph Reimann      : Effective Core Potentials
   Marius Retegan         : Local ZFS, SOC
   Christoph Riplinger    : Optimizer, TS searches, QM/MM, DLPNO-CCSD(T), (RO)-DLPNO pert. Triples
   Tobias Risthaus        : Range-separated hybrids, TD-DFT gradient, RPA, STAB
   Michael Roemelt        : Restricted open shell CIS
   Masaaki Saitow         : Open-shell DLPNO
   Barbara Sandhoefer     : DKH picture change effects
   Avijit Sen             : IP-ROCIS
   Kantharuban Sivalingam : CASSCF convergence, NEVPT2, FIC-MRCI
   Bernardo de Souza      : ESD, SOC TD-DFT
   Georgi Stoychev        : AutoAux, RI-MP2 NMR
   Willem Van den Heuvel  : Paramagnetic NMR
   Boris Wezisla          : Elementary symmetry handling
   Frank Wennmohs         : Technical directorship


 We gratefully acknowledge several colleagues who have allowed us to
 interface, adapt or use parts of their codes:
   Stefan Grimme, W. Hujo, H. Kruse,             : VdW corrections, initial TS optimization,
                  C. Bannwarth                     DFT functionals, gCP, sTDA/sTD-DF
   Ed Valeev                                     : LibInt (2-el integral package), F12 methods
   Garnet Chan, S. Sharma, J. Yang, R. Olivares  : DMRG
   Ulf Ekstrom                                   : XCFun DFT Library
   Mihaly Kallay                                 : mrcc  (arbitrary order and MRCC methods)
   Andreas Klamt, Michael Diedenhofen            : otool_cosmo (COSMO solvation model)
   Jiri Pittner, Ondrej Demel                    : Mk-CCSD
   Frank Weinhold                                : gennbo (NPA and NBO analysis)
   Christopher J. Cramer and Donald G. Truhlar   : smd solvation model
   Lars Goerigk                                  : TD-DFT with DH, B97 family of functionals
   V. Asgeirsson, H. Jonsson                     : NEB implementation
   FAccTs GmbH                                   : IRC, NEB, NEB-TS, Multilevel


 Your calculation uses the libint2 library for the computation of 2-el integrals
 For citations please refer to: http://libint.valeyev.net

 This ORCA versions uses:
   CBLAS   interface :  Fast vector & matrix operations
   LAPACKE interface :  Fast linear algebra routines
   SCALAPACK package :  Parallel linear algebra routines


----- Orbital basis set information -----
Your calculation utilizes the basis: aug-pc-4
   H, C-F              : F. Jensen, J. Chem. Phys. 115, 9113 (2001).
                         F. Jensen, J. Chem. Phys. 116, 7372 (2002).
                         F. Jensen, J. Chem. Phys. 117, 9234 (2002).
   Si-Cl               : F. Jensen, T. Helgaker, J. Chem. Phys. 121, 3463 (2004).
   He-B, Ne-Mg, Al, Ar : F. Jensen, J. Phys. Chem. A 111, 11198 (2007).
   K, Ca, Ga-Kr        : F. Jensen, J. Chem. Phys. 136, 094110 (2012).
   Sc-Zn               : F. Jensen, J. Chem. Phys. 138, 014107 (2013).

================================================================================
                                        WARNINGS
                       Please study these warnings very carefully!
================================================================================


INFO   : the flag for use of LIBINT has been found!

================================================================================
                                       INPUT FILE
================================================================================
NAME = scl_pbe_+0001_z.inp
|  1> !uks pbe nori aug-pc-4 grid5 nofinalgrid verytightscf
|  2> 
|  3> %maxcore 6000
|  4> 
|  5> %pal nprocs 4 end
|  6> 
|  7> %scf
|  8> 	efield 0.0, 0.0, 0.001
|  9> 	maxiter 200
| 10> end
| 11> 
| 12> * xyz 0 2
| 13> S 0.0000 0.0000 0.0000
| 14> Cl 0.0000 0.0000 1.9753
| 15> *
| 16> 
| 17>                          ****END OF INPUT****
================================================================================

                       ****************************
                       * Single Point Calculation *
                       ****************************

---------------------------------
CARTESIAN COORDINATES (ANGSTROEM)
---------------------------------
  S      0.000000    0.000000    0.000000
  Cl     0.000000    0.000000    1.975300

----------------------------
CARTESIAN COORDINATES (A.U.)
----------------------------
  NO LB      ZA    FRAG     MASS         X           Y           Z
   0 S    16.0000    0    32.060    0.000000    0.000000    0.000000
   1 Cl   17.0000    0    35.453    0.000000    0.000000    3.732776

--------------------------------
INTERNAL COORDINATES (ANGSTROEM)
--------------------------------
 S      0   0   0     0.000000000000     0.00000000     0.00000000
 Cl     1   0   0     1.975300000000     0.00000000     0.00000000

---------------------------
INTERNAL COORDINATES (A.U.)
---------------------------
 S      0   0   0     0.000000000000     0.00000000     0.00000000
 Cl     1   0   0     3.732776032335     0.00000000     0.00000000

---------------------
BASIS SET INFORMATION
---------------------
There are 2 groups of distinct atoms

 Group   1 Type S   : 44s27p7d4f3g2h contracted to 8s7p7d4f3g2h pattern {15121211111/111111111/1111111/1111/111/11}
 Group   2 Type Cl  : 44s27p7d4f3g2h contracted to 8s7p7d4f3g2h pattern {15121211111/111111111/1111111/1111/111/11}

Atom   0S    basis set group =>   1
Atom   1Cl   basis set group =>   2


           ************************************************************
           *        Program running with 4 parallel MPI-processes     *
           *              working on a common directory               *
           ************************************************************
------------------------------------------------------------------------------
                           ORCA GTO INTEGRAL CALCULATION
------------------------------------------------------------------------------

                         BASIS SET STATISTICS AND STARTUP INFO

 # of primitive gaussian shells          ...  174
 # of primitive gaussian functions       ...  474
 # of contracted shells                  ...   62
 # of contracted basis functions         ...  282
 Highest angular momentum                ...    5
 Maximum contraction depth               ...   15
 Integral package used                   ... LIBINT
 Integral threshhold            Thresh   ...  1.000e-12
 Primitive cut-off              TCut     ...  1.000e-14


------------------------------ INTEGRAL EVALUATION ----------------------------


 * One electron integrals 
 Pre-screening matrix                    ... done
 Shell pair data                         ... done (   0.001 sec)


An Electric Field will be added: 0.000e+00 0.000e+00 1.000e-03 au

  ... done adding electric field perturbation



           ************************************************************
           *        Program running with 4 parallel MPI-processes     *
           *              working on a common directory               *
           ************************************************************
-------------------------------------------------------------------------------
                                 ORCA SCF
-------------------------------------------------------------------------------

------------
SCF SETTINGS
------------
Hamiltonian:
 Density Functional     Method          .... DFT(GTOs)
 Exchange Functional    Exchange        .... PBE
   PBE kappa parameter   XKappa         ....  0.804000
   PBE mue parameter    XMuePBE         ....  0.219520
 Correlation Functional Correlation     .... PBE
   PBE beta parameter  CBetaPBE         ....  0.066725
 LDA part of GGA corr.  LDAOpt          .... PW91-LDA
 Gradients option       PostSCFGGA      .... off
   Density functional embedding theory  .... OFF
   NL short-range parameter             ....  6.400000


General Settings:
 Integral files         IntName         .... scl_pbe_+0001_z
 Hartree-Fock type      HFTyp           .... UHF
 Total Charge           Charge          ....    0
 Multiplicity           Mult            ....    2
 Number of Electrons    NEL             ....   33
 Basis Dimension        Dim             ....  282
 Nuclear Repulsion      ENuc            ....     72.8680203805 Eh

Convergence Acceleration:
 DIIS                   CNVDIIS         .... on
   Start iteration      DIISMaxIt       ....    12
   Startup error        DIISStart       ....  0.200000
   # of expansion vecs  DIISMaxEq       ....     5
   Bias factor          DIISBfac        ....   1.050
   Max. coefficient     DIISMaxC        ....  10.000
 Newton-Raphson         CNVNR           .... off
 SOSCF                  CNVSOSCF        .... off
 Level Shifting         CNVShift        .... on
   Level shift para.    LevelShift      ....    0.2500
   Turn off err/grad.   ShiftErr        ....    0.0010
 Zerner damping         CNVZerner       .... off
 Static damping         CNVDamp         .... on
   Fraction old density DampFac         ....    0.7000
   Max. Damping (<1)    DampMax         ....    0.9800
   Min. Damping (>=0)   DampMin         ....    0.0000
   Turn off err/grad.   DampErr         ....    0.1000
 Fernandez-Rico         CNVRico         .... off

SCF Procedure:
 Maximum # iterations   MaxIter         ....   200
 SCF integral mode      SCFMode         .... Direct
   Integral package                     .... LIBINT
 Reset frequency        DirectResetFreq ....    20
 Integral Threshold     Thresh          ....  1.000e-12 Eh
 Primitive CutOff       TCut            ....  1.000e-14 Eh

Convergence Tolerance:
 Convergence Check Mode ConvCheckMode   .... Total+1el-Energy
 Convergence forced     ConvForced      .... 0
 Energy Change          TolE            ....  1.000e-09 Eh
 1-El. energy change                    ....  1.000e-06 Eh
 DIIS Error             TolErr          ....  1.000e-08


Diagonalization of the overlap matrix:
Smallest eigenvalue                        ... 1.610e-05
Time for diagonalization                   ...    0.016 sec
Threshold for overlap eigenvalues          ... 1.000e-08
Number of eigenvalues below threshold      ... 0
Time for construction of square roots      ...    0.012 sec
Total time needed                          ...    0.028 sec

-------------------
DFT GRID GENERATION
-------------------

General Integration Accuracy     IntAcc      ...  5.010
Radial Grid Type                 RadialGrid  ... Gauss-Chebyshev
Angular Grid (max. acc.)         AngularGrid ... Lebedev-434
Angular grid pruning method      GridPruning ... 3 (G Style)
Weight generation scheme         WeightScheme... Becke
Basis function cutoff            BFCut       ...    1.0000e-12
Integration weight cutoff        WCut        ...    1.0000e-14
Grids for H and He will be reduced by one unit

# of grid points (after initial pruning)     ...  23624 (   0.0 sec)
# of grid points (after weights+screening)   ...  23562 (   0.0 sec)
nearest neighbour list constructed           ...    0.0 sec
Grid point re-assignment to atoms done       ...    0.0 sec
Grid point division into batches done        ...    0.2 sec
Reduced shell lists constructed in    0.3 sec

Total number of grid points                  ...    23562
Total number of batches                      ...      369
Average number of points per batch           ...       63
Average number of grid points per atom       ...    11781
Average number of shells per batch           ...    38.32 (61.81%)
Average number of basis functions per batch  ...   180.19 (63.90%)
Average number of large shells per batch     ...    32.44 (84.65%)
Average number of large basis fcns per batch ...   153.41 (85.14%)
Maximum spatial batch extension              ...  18.71, 18.71, 16.84 au
Average spatial batch extension              ...   1.47,  1.48,  1.30 au

Time for grid setup =    0.314 sec

------------------------------
INITIAL GUESS: MODEL POTENTIAL
------------------------------
Loading Hartree-Fock densities                     ... done
Calculating cut-offs                               ... done
Setting up the integral package                    ... done
Initializing the effective Hamiltonian             ... done
Starting the Coulomb interaction                   ... done (   0.0 sec)
Reading the grid                                   ... done
Mapping shells                                     ... done
Starting the XC term evaluation                    ... done (   0.3 sec)
  promolecular density results
     # of electrons  =     32.999998456
     EX              =    -52.244158252
     EC              =     -1.277602704
     EX+EC           =    -53.521760956
Transforming the Hamiltonian                       ... done (   0.0 sec)
Diagonalizing the Hamiltonian                      ... done (   0.0 sec)
Back transforming the eigenvectors                 ... done (   0.0 sec)
Now organizing SCF variables                       ... done
                      ------------------
                      INITIAL GUESS DONE (   0.7 sec)
                      ------------------
--------------
SCF ITERATIONS
--------------
ITER       Energy         Delta-E        Max-DP      RMS-DP      [F,P]     Damp
               ***  Starting incremental Fock matrix formation  ***
  0   -858.0454773503   0.000000000000 0.00882565  0.00008310  0.0267805 0.7000
  1   -858.0474226204  -0.001945270101 0.00640054  0.00006398  0.0182455 0.7000
                               ***Turning on DIIS***
  2   -858.0484306257  -0.001008005273 0.01308413  0.00014283  0.0114946 0.0000
  3   -858.0504321752  -0.002001549542 0.00436836  0.00004803  0.0129429 0.0000
  4   -858.0507058274  -0.000273652164 0.00294836  0.00002309  0.0052753 0.0000
  5   -858.0507813535  -0.000075526159 0.00088313  0.00000821  0.0011722 0.0000
  6   -858.0507907388  -0.000009385252 0.00065690  0.00000721  0.0006470 0.0000
  7   -858.0507941090  -0.000003370195 0.00014302  0.00000171  0.0007944 0.0000
  8   -858.0507950916  -0.000000982659 0.00006876  0.00000084  0.0001054 0.0000
  9   -858.0507951258  -0.000000034139 0.00003674  0.00000039  0.0000817 0.0000
 10   -858.0507951468  -0.000000021035 0.00000681  0.00000009  0.0000155 0.0000
 11   -858.0507951478  -0.000000001009 0.00000224  0.00000002  0.0000047 0.0000
 12   -858.0507951479  -0.000000000100 0.00000122  0.00000001  0.0000016 0.0000
 13   -858.0507951479  -0.000000000011 0.00000191  0.00000002  0.0000003 0.0000
                 **** Energy Check signals convergence ****

               *****************************************************
               *                     SUCCESS                       *
               *           SCF CONVERGED AFTER  14 CYCLES          *
               *****************************************************


----------------
TOTAL SCF ENERGY
----------------

Total Energy       :         -858.05079515 Eh          -23348.74916 eV

Components:
Nuclear Repulsion  :           72.86802038 Eh            1982.83964 eV
Electronic Energy  :         -930.91881553 Eh          -25331.58880 eV
One Electron Energy:        -1329.95739055 Eh          -36189.98046 eV
Two Electron Energy:          399.03857502 Eh           10858.39166 eV

Virial components:
Potential Energy   :        -1715.38064573 Eh          -46677.88043 eV
Kinetic Energy     :          857.32985058 Eh           23329.13126 eV
Virial Ratio       :            2.00084092


DFT components:
N(Alpha)           :       16.999999907164 electrons
N(Beta)            :       15.999999872816 electrons
N(Total)           :       32.999999779980 electrons
E(X)               :      -52.265996723409 Eh       
E(C)               :       -1.271351605849 Eh       
E(XC)              :      -53.537348329259 Eh       
DFET-embed. en.    :        0.000000000000 Eh       

---------------
SCF CONVERGENCE
---------------

  Last Energy change         ...   -1.1369e-13  Tolerance :   1.0000e-09
  Last MAX-Density change    ...    5.4915e-07  Tolerance :   1.0000e-08
  Last RMS-Density change    ...    4.9260e-09  Tolerance :   1.0000e-09
  Last DIIS Error            ...    1.4533e-07  Tolerance :   1.0000e-08

             **** THE GBW FILE WAS UPDATED (scl_pbe_+0001_z.gbw) ****
             **** DENSITY FILE WAS UPDATED (scl_pbe_+0001_z.scfp.tmp) ****
             **** ENERGY FILE WAS UPDATED (scl_pbe_+0001_z.en.tmp) ****
----------------------
UHF SPIN CONTAMINATION
----------------------

Warning: in a DFT calculation there is little theoretical justification to 
         calculate <S**2> as in Hartree-Fock theory. We will do it anyways
         but you should keep in mind that the values have only limited relevance

Expectation value of <S**2>     :     0.753271
Ideal value S*(S+1) for S=0.5   :     0.750000
Deviation                       :     0.003271

----------------
ORBITAL ENERGIES
----------------
                 SPIN UP ORBITALS
  NO   OCC          E(Eh)            E(eV) 
   0   1.0000    -100.705454     -2740.3347 
   1   1.0000     -88.095324     -2397.1956 
   2   1.0000      -9.226921      -251.0773 
   3   1.0000      -7.729122      -210.3201 
   4   1.0000      -7.049270      -191.8204 
   5   1.0000      -7.043111      -191.6528 
   6   1.0000      -7.037574      -191.5021 
   7   1.0000      -5.752387      -156.5304 
   8   1.0000      -5.752005      -156.5200 
   9   1.0000      -5.736513      -156.0984 
  10   1.0000      -0.831120       -22.6159 
  11   1.0000      -0.628050       -17.0901 
  12   1.0000      -0.404622       -11.0103 
  13   1.0000      -0.370041       -10.0693 
  14   1.0000      -0.350361        -9.5338 
  15   1.0000      -0.255719        -6.9585 
  16   1.0000      -0.222364        -6.0508 
  17   0.0000      -0.106513        -2.8984 
  18   0.0000      -0.012734        -0.3465 
  19   0.0000       0.013047         0.3550 
  20   0.0000       0.014581         0.3968 
  21   0.0000       0.015650         0.4259 
  22   0.0000       0.031815         0.8657 
  23   0.0000       0.044754         1.2178 
  24   0.0000       0.046024         1.2524 
  25   0.0000       0.064328         1.7505 
  26   0.0000       0.064705         1.7607 
  27   0.0000       0.083471         2.2714 
  28   0.0000       0.091076         2.4783 
  29   0.0000       0.098511         2.6806 
  30   0.0000       0.101731         2.7682 
  31   0.0000       0.104234         2.8364 
  32   0.0000       0.110752         3.0137 
  33   0.0000       0.132749         3.6123 
  34   0.0000       0.141430         3.8485 
  35   0.0000       0.143374         3.9014 
  36   0.0000       0.143639         3.9086 
  37   0.0000       0.156496         4.2585 
  38   0.0000       0.159973         4.3531 
  39   0.0000       0.187601         5.1049 
  40   0.0000       0.197291         5.3686 
  41   0.0000       0.214447         5.8354 
  42   0.0000       0.214448         5.8354 
  43   0.0000       0.217683         5.9234 
  44   0.0000       0.218564         5.9474 
  45   0.0000       0.219157         5.9636 
  46   0.0000       0.224518         6.1094 
  47   0.0000       0.227698         6.1960 
  48   0.0000       0.254793         6.9333 
  49   0.0000       0.269632         7.3371 
  50   0.0000       0.270072         7.3490 
  51   0.0000       0.293968         7.9993 
  52   0.0000       0.321498         8.7484 
  53   0.0000       0.322131         8.7656 
  54   0.0000       0.322204         8.7676 
  55   0.0000       0.329787         8.9740 
  56   0.0000       0.335035         9.1168 
  57   0.0000       0.336267         9.1503 
  58   0.0000       0.336267         9.1503 
  59   0.0000       0.391654        10.6574 
  60   0.0000       0.400144        10.8885 
  61   0.0000       0.400144        10.8885 
  62   0.0000       0.400216        10.8904 
  63   0.0000       0.408592        11.1184 
  64   0.0000       0.422647        11.5008 
  65   0.0000       0.430407        11.7120 
  66   0.0000       0.437137        11.8951 
  67   0.0000       0.449305        12.2262 
  68   0.0000       0.449619        12.2347 
  69   0.0000       0.453281        12.3344 
  70   0.0000       0.453313        12.3353 
  71   0.0000       0.475953        12.9513 
  72   0.0000       0.483407        13.1542 
  73   0.0000       0.484014        13.1707 
  74   0.0000       0.495399        13.4805 
  75   0.0000       0.495684        13.4882 
  76   0.0000       0.506155        13.7732 
  77   0.0000       0.513494        13.9729 
  78   0.0000       0.554029        15.0759 
  79   0.0000       0.557552        15.1718 
  80   0.0000       0.557553        15.1718 
  81   0.0000       0.586688        15.9646 
  82   0.0000       0.588314        16.0088 
  83   0.0000       0.588337        16.0095 
  84   0.0000       0.599036        16.3006 
  85   0.0000       0.607307        16.5257 
  86   0.0000       0.619286        16.8516 
  87   0.0000       0.619286        16.8516 
  88   0.0000       0.640673        17.4336 
  89   0.0000       0.647896        17.6302 
  90   0.0000       0.648985        17.6598 
  91   0.0000       0.681199        18.5364 
  92   0.0000       0.681236        18.5374 
  93   0.0000       0.692346        18.8397 
  94   0.0000       0.700101        19.0507 
  95   0.0000       0.702195        19.1077 
  96   0.0000       0.702197        19.1078 
  97   0.0000       0.773515        21.0484 
  98   0.0000       0.774359        21.0714 
  99   0.0000       0.785256        21.3679 
 100   0.0000       0.794696        21.6248 
 101   0.0000       0.795111        21.6361 
 102   0.0000       0.818669        22.2771 
 103   0.0000       0.823917        22.4199 
 104   0.0000       0.831435        22.6245 
 105   0.0000       0.833801        22.6889 
 106   0.0000       0.833801        22.6889 
 107   0.0000       0.852516        23.1981 
 108   0.0000       0.864915        23.5355 
 109   0.0000       0.866540        23.5797 
 110   0.0000       0.868854        23.6427 
 111   0.0000       0.898516        24.4499 
 112   0.0000       0.898708        24.4551 
 113   0.0000       0.936517        25.4839 
 114   0.0000       0.936520        25.4840 
 115   0.0000       0.955286        25.9947 
 116   0.0000       0.981547        26.7093 
 117   0.0000       0.983090        26.7512 
 118   0.0000       0.989544        26.9269 
 119   0.0000       1.003319        27.3017 
 120   0.0000       1.006138        27.3784 
 121   0.0000       1.027442        27.9581 
 122   0.0000       1.043315        28.3900 
 123   0.0000       1.052257        28.6334 
 124   0.0000       1.102875        30.0108 
 125   0.0000       1.254827        34.1456 
 126   0.0000       1.275448        34.7067 
 127   0.0000       1.289966        35.1018 
 128   0.0000       1.289970        35.1019 
 129   0.0000       1.307336        35.5744 
 130   0.0000       1.307343        35.5746 
 131   0.0000       1.319755        35.9124 
 132   0.0000       1.319829        35.9144 
 133   0.0000       1.332215        36.2514 
 134   0.0000       1.442093        39.2413 
 135   0.0000       1.463779        39.8315 
 136   0.0000       1.487043        40.4645 
 137   0.0000       1.580544        43.0088 
 138   0.0000       1.581326        43.0301 
 139   0.0000       1.633596        44.4524 
 140   0.0000       1.644892        44.7598 
 141   0.0000       1.740313        47.3563 
 142   0.0000       1.822746        49.5994 
 143   0.0000       1.827057        49.7168 
 144   0.0000       1.838322        50.0233 
 145   0.0000       1.898807        51.6692 
 146   0.0000       2.047813        55.7238 
 147   0.0000       2.047916        55.7266 
 148   0.0000       2.163409        58.8694 
 149   0.0000       2.180745        59.3411 
 150   0.0000       2.180849        59.3439 
 151   0.0000       2.183245        59.4091 
 152   0.0000       2.270952        61.7957 
 153   0.0000       2.308650        62.8216 
 154   0.0000       2.324656        63.2571 
 155   0.0000       2.445987        66.5587 
 156   0.0000       2.446027        66.5598 
 157   0.0000       2.452037        66.7233 
 158   0.0000       2.452558        66.7375 
 159   0.0000       2.490800        67.7781 
 160   0.0000       2.490802        67.7782 
 161   0.0000       2.621560        71.3363 
 162   0.0000       2.637408        71.7675 
 163   0.0000       2.723077        74.0987 
 164   0.0000       2.826143        76.9033 
 165   0.0000       2.826147        76.9034 
 166   0.0000       2.891039        78.6692 
 167   0.0000       2.891044        78.6693 
 168   0.0000       2.997367        81.5625 
 169   0.0000       3.139168        85.4211 
 170   0.0000       3.169709        86.2522 
 171   0.0000       3.170380        86.2704 
 172   0.0000       3.218786        87.5876 
 173   0.0000       3.218791        87.5878 
 174   0.0000       3.395678        92.4011 
 175   0.0000       3.396791        92.4314 
 176   0.0000       3.420252        93.0698 
 177   0.0000       3.447228        93.8038 
 178   0.0000       3.464214        94.2661 
 179   0.0000       3.473051        94.5065 
 180   0.0000       3.473084        94.5074 
 181   0.0000       3.534207        96.1707 
 182   0.0000       3.604628        98.0869 
 183   0.0000       3.623795        98.6085 
 184   0.0000       3.655901        99.4821 
 185   0.0000       3.656461        99.4974 
 186   0.0000       3.744084       101.8817 
 187   0.0000       3.772875       102.6651 
 188   0.0000       3.947183       107.4083 
 189   0.0000       4.092748       111.3693 
 190   0.0000       4.142848       112.7326 
 191   0.0000       4.158325       113.1538 
 192   0.0000       4.658667       126.7688 
 193   0.0000       4.670152       127.0813 
 194   0.0000       4.852045       132.0308 
 195   0.0000       5.010263       136.3362 
 196   0.0000       5.048037       137.3641 
 197   0.0000       5.048107       137.3660 
 198   0.0000       5.053230       137.5054 
 199   0.0000       5.054444       137.5384 
 200   0.0000       5.112815       139.1268 
 201   0.0000       5.112848       139.1277 
 202   0.0000       5.122034       139.3776 
 203   0.0000       5.122034       139.3776 
 204   0.0000       5.190047       141.2284 
 205   0.0000       5.211673       141.8168 
 206   0.0000       5.363505       145.9484 
 207   0.0000       5.509129       149.9110 
 208   0.0000       5.509139       149.9113 
 209   0.0000       5.641249       153.5062 
 210   0.0000       5.641249       153.5062 
 211   0.0000       5.643409       153.5650 
 212   0.0000       5.643416       153.5652 
 213   0.0000       5.705776       155.2621 
 214   0.0000       5.705820       155.2633 
 215   0.0000       5.727912       155.8644 
 216   0.0000       5.752607       156.5364 
 217   0.0000       5.772274       157.0716 
 218   0.0000       5.772279       157.0717 
 219   0.0000       5.924382       161.2106 
 220   0.0000       5.934851       161.4955 
 221   0.0000       6.171091       167.9239 
 222   0.0000       6.245429       169.9468 
 223   0.0000       6.245681       169.9536 
 224   0.0000       6.665181       181.3688 
 225   0.0000       6.690409       182.0553 
 226   0.0000       6.708644       182.5515 
 227   0.0000       6.888271       187.4394 
 228   0.0000       8.143896       221.6067 
 229   0.0000       8.143986       221.6091 
 230   0.0000       8.169978       222.3164 
 231   0.0000       8.169986       222.3166 
 232   0.0000       8.296642       225.7631 
 233   0.0000       8.296921       225.7707 
 234   0.0000       8.682865       236.2728 
 235   0.0000       8.707581       236.9453 
 236   0.0000       8.878123       241.5860 
 237   0.0000       9.054478       246.3849 
 238   0.0000       9.054598       246.3881 
 239   0.0000       9.076015       246.9709 
 240   0.0000       9.076015       246.9709 
 241   0.0000       9.293053       252.8768 
 242   0.0000       9.293099       252.8781 
 243   0.0000       9.811870       266.9945 
 244   0.0000       9.824502       267.3383 
 245   0.0000       9.871583       268.6194 
 246   0.0000      11.573801       314.9391 
 247   0.0000      11.573827       314.9398 
 248   0.0000      11.656125       317.1793 
 249   0.0000      11.656436       317.1878 
 250   0.0000      11.697491       318.3049 
 251   0.0000      11.714788       318.7756 
 252   0.0000      12.082364       328.7778 
 253   0.0000      12.798832       348.2739 
 254   0.0000      12.798833       348.2740 
 255   0.0000      12.834340       349.2401 
 256   0.0000      12.834426       349.2425 
 257   0.0000      12.953946       352.4948 
 258   0.0000      12.960250       352.6663 
 259   0.0000      13.140061       357.5592 
 260   0.0000      16.808856       457.3922 
 261   0.0000      16.808969       457.3953 
 262   0.0000      16.885838       459.4870 
 263   0.0000      16.901162       459.9040 
 264   0.0000      17.352603       472.1883 
 265   0.0000      17.546201       477.4564 
 266   0.0000      17.546235       477.4573 
 267   0.0000      17.696149       481.5367 
 268   0.0000      17.701838       481.6915 
 269   0.0000      18.139037       493.5883 
 270   0.0000      28.958202       787.9927 
 271   0.0000      38.572845      1049.6205 
 272   0.0000      62.316083      1695.7068 
 273   0.0000      62.316184      1695.7096 
 274   0.0000      62.364593      1697.0268 
 275   0.0000      62.375172      1697.3147 
 276   0.0000      62.638184      1704.4716 
 277   0.0000      65.736997      1788.7946 
 278   0.0000      65.737001      1788.7947 
 279   0.0000      65.827825      1791.2662 
 280   0.0000      65.831631      1791.3698 
 281   0.0000      66.092987      1798.4816 

                 SPIN DOWN ORBITALS
  NO   OCC          E(Eh)            E(eV) 
   0   1.0000    -100.704181     -2740.3001 
   1   1.0000     -88.091400     -2397.0889 
   2   1.0000      -9.225704      -251.0442 
   3   1.0000      -7.725129      -210.2115 
   4   1.0000      -7.048660      -191.8038 
   5   1.0000      -7.039369      -191.5510 
   6   1.0000      -7.036817      -191.4815 
   7   1.0000      -5.749548      -156.4532 
   8   1.0000      -5.740837      -156.2161 
   9   1.0000      -5.734136      -156.0338 
  10   1.0000      -0.822768       -22.3887 
  11   1.0000      -0.603761       -16.4292 
  12   1.0000      -0.394225       -10.7274 
  13   1.0000      -0.347308        -9.4507 
  14   1.0000      -0.346753        -9.4356 
  15   1.0000      -0.213429        -5.8077 
  16   0.0000      -0.204290        -5.5590 
  17   0.0000      -0.096144        -2.6162 
  18   0.0000      -0.008444        -0.2298 
  19   0.0000       0.016166         0.4399 
  20   0.0000       0.016679         0.4539 
  21   0.0000       0.018072         0.4918 
  22   0.0000       0.034373         0.9353 
  23   0.0000       0.046324         1.2605 
  24   0.0000       0.047481         1.2920 
  25   0.0000       0.071761         1.9527 
  26   0.0000       0.072940         1.9848 
  27   0.0000       0.085776         2.3341 
  28   0.0000       0.099896         2.7183 
  29   0.0000       0.102852         2.7987 
  30   0.0000       0.104504         2.8437 
  31   0.0000       0.111657         3.0383 
  32   0.0000       0.112795         3.0693 
  33   0.0000       0.136017         3.7012 
  34   0.0000       0.145074         3.9477 
  35   0.0000       0.147274         4.0075 
  36   0.0000       0.148227         4.0335 
  37   0.0000       0.160756         4.3744 
  38   0.0000       0.161789         4.4025 
  39   0.0000       0.198507         5.4017 
  40   0.0000       0.200143         5.4462 
  41   0.0000       0.219398         5.9701 
  42   0.0000       0.219676         5.9777 
  43   0.0000       0.220930         6.0118 
  44   0.0000       0.228267         6.2115 
  45   0.0000       0.230649         6.2763 
  46   0.0000       0.233619         6.3571 
  47   0.0000       0.236047         6.4232 
  48   0.0000       0.258398         7.0314 
  49   0.0000       0.274023         7.4566 
  50   0.0000       0.275124         7.4865 
  51   0.0000       0.299271         8.1436 
  52   0.0000       0.330034         8.9807 
  53   0.0000       0.331025         9.0077 
  54   0.0000       0.331572         9.0225 
  55   0.0000       0.333886         9.0855 
  56   0.0000       0.339220         9.2306 
  57   0.0000       0.339358         9.2344 
  58   0.0000       0.339675         9.2430 
  59   0.0000       0.401460        10.9243 
  60   0.0000       0.403786        10.9876 
  61   0.0000       0.406332        11.0569 
  62   0.0000       0.406453        11.0602 
  63   0.0000       0.413322        11.2471 
  64   0.0000       0.432016        11.7557 
  65   0.0000       0.435173        11.8417 
  66   0.0000       0.442300        12.0356 
  67   0.0000       0.455558        12.3964 
  68   0.0000       0.456656        12.4262 
  69   0.0000       0.459120        12.4933 
  70   0.0000       0.459456        12.5024 
  71   0.0000       0.485284        13.2052 
  72   0.0000       0.487784        13.2733 
  73   0.0000       0.488201        13.2846 
  74   0.0000       0.507424        13.8077 
  75   0.0000       0.509943        13.8763 
  76   0.0000       0.513937        13.9849 
  77   0.0000       0.514501        14.0003 
  78   0.0000       0.558846        15.2070 
  79   0.0000       0.561309        15.2740 
  80   0.0000       0.561389        15.2762 
  81   0.0000       0.592712        16.1285 
  82   0.0000       0.596710        16.2373 
  83   0.0000       0.596918        16.2430 
  84   0.0000       0.608571        16.5601 
  85   0.0000       0.611115        16.6293 
  86   0.0000       0.625751        17.0276 
  87   0.0000       0.625801        17.0289 
  88   0.0000       0.645394        17.5621 
  89   0.0000       0.652447        17.7540 
  90   0.0000       0.653381        17.7794 
  91   0.0000       0.686105        18.6699 
  92   0.0000       0.686390        18.6776 
  93   0.0000       0.701255        19.0821 
  94   0.0000       0.702472        19.1152 
  95   0.0000       0.707506        19.2522 
  96   0.0000       0.707602        19.2548 
  97   0.0000       0.784577        21.3494 
  98   0.0000       0.786050        21.3895 
  99   0.0000       0.788712        21.4619 
 100   0.0000       0.803171        21.8554 
 101   0.0000       0.804172        21.8826 
 102   0.0000       0.824821        22.4445 
 103   0.0000       0.827357        22.5135 
 104   0.0000       0.833711        22.6864 
 105   0.0000       0.836135        22.7524 
 106   0.0000       0.836147        22.7527 
 107   0.0000       0.869472        23.6595 
 108   0.0000       0.870934        23.6993 
 109   0.0000       0.871080        23.7033 
 110   0.0000       0.871128        23.7046 
 111   0.0000       0.905306        24.6346 
 112   0.0000       0.906202        24.6590 
 113   0.0000       0.938969        25.5506 
 114   0.0000       0.938994        25.5513 
 115   0.0000       0.960647        26.1405 
 116   0.0000       0.990581        26.9551 
 117   0.0000       0.991247        26.9732 
 118   0.0000       0.996651        27.1203 
 119   0.0000       1.016298        27.6549 
 120   0.0000       1.018321        27.7099 
 121   0.0000       1.033402        28.1203 
 122   0.0000       1.053210        28.6593 
 123   0.0000       1.053362        28.6634 
 124   0.0000       1.112654        30.2769 
 125   0.0000       1.278617        34.7929 
 126   0.0000       1.281192        34.8630 
 127   0.0000       1.301409        35.4131 
 128   0.0000       1.301499        35.4156 
 129   0.0000       1.325510        36.0690 
 130   0.0000       1.326051        36.0837 
 131   0.0000       1.335697        36.3462 
 132   0.0000       1.336535        36.3690 
 133   0.0000       1.338200        36.4143 
 134   0.0000       1.467510        39.9330 
 135   0.0000       1.473096        40.0850 
 136   0.0000       1.498398        40.7735 
 137   0.0000       1.598507        43.4976 
 138   0.0000       1.601080        43.5676 
 139   0.0000       1.646534        44.8045 
 140   0.0000       1.646840        44.8128 
 141   0.0000       1.748582        47.5813 
 142   0.0000       1.830756        49.8174 
 143   0.0000       1.839660        50.0597 
 144   0.0000       1.842034        50.1243 
 145   0.0000       1.902826        51.7785 
 146   0.0000       2.063759        56.1577 
 147   0.0000       2.065348        56.2010 
 148   0.0000       2.185537        59.4715 
 149   0.0000       2.186233        59.4904 
 150   0.0000       2.198188        59.8157 
 151   0.0000       2.200339        59.8743 
 152   0.0000       2.283015        62.1240 
 153   0.0000       2.327249        63.3277 
 154   0.0000       2.328006        63.3483 
 155   0.0000       2.468445        67.1698 
 156   0.0000       2.470654        67.2299 
 157   0.0000       2.472387        67.2771 
 158   0.0000       2.473021        67.2943 
 159   0.0000       2.534662        68.9717 
 160   0.0000       2.535050        68.9822 
 161   0.0000       2.638164        71.7881 
 162   0.0000       2.638481        71.7967 
 163   0.0000       2.735620        74.4400 
 164   0.0000       2.836537        77.1861 
 165   0.0000       2.836538        77.1861 
 166   0.0000       2.903112        78.9977 
 167   0.0000       2.903306        79.0030 
 168   0.0000       3.004178        81.7478 
 169   0.0000       3.160082        85.9902 
 170   0.0000       3.184334        86.6501 
 171   0.0000       3.186103        86.6983 
 172   0.0000       3.262558        88.7787 
 173   0.0000       3.263404        88.8017 
 174   0.0000       3.417344        92.9906 
 175   0.0000       3.419588        93.0517 
 176   0.0000       3.449320        93.8608 
 177   0.0000       3.455974        94.0418 
 178   0.0000       3.469548        94.4112 
 179   0.0000       3.485607        94.8482 
 180   0.0000       3.485647        94.8493 
 181   0.0000       3.548276        96.5535 
 182   0.0000       3.624796        98.6357 
 183   0.0000       3.626657        98.6863 
 184   0.0000       3.667618        99.8010 
 185   0.0000       3.668759        99.8320 
 186   0.0000       3.777867       102.8010 
 187   0.0000       3.778730       102.8245 
 188   0.0000       3.951239       107.5187 
 189   0.0000       4.098155       111.5165 
 190   0.0000       4.158764       113.1657 
 191   0.0000       4.159405       113.1832 
 192   0.0000       4.669449       127.0622 
 193   0.0000       4.671775       127.1255 
 194   0.0000       4.862923       132.3269 
 195   0.0000       5.016905       136.5169 
 196   0.0000       5.072843       138.0391 
 197   0.0000       5.075577       138.1135 
 198   0.0000       5.076984       138.1518 
 199   0.0000       5.077513       138.1661 
 200   0.0000       5.152839       140.2159 
 201   0.0000       5.153121       140.2235 
 202   0.0000       5.175201       140.8244 
 203   0.0000       5.175318       140.8276 
 204   0.0000       5.213524       141.8672 
 205   0.0000       5.215311       141.9158 
 206   0.0000       5.368715       146.0902 
 207   0.0000       5.528499       150.4381 
 208   0.0000       5.531803       150.5280 
 209   0.0000       5.653079       153.8281 
 210   0.0000       5.653091       153.8284 
 211   0.0000       5.654276       153.8607 
 212   0.0000       5.654276       153.8607 
 213   0.0000       5.712524       155.4457 
 214   0.0000       5.713010       155.4589 
 215   0.0000       5.756025       156.6294 
 216   0.0000       5.756226       156.6349 
 217   0.0000       5.783613       157.3801 
 218   0.0000       5.783787       157.3849 
 219   0.0000       5.932837       161.4407 
 220   0.0000       5.935263       161.5067 
 221   0.0000       6.189218       168.4172 
 222   0.0000       6.257886       170.2857 
 223   0.0000       6.259499       170.3296 
 224   0.0000       6.674758       181.6294 
 225   0.0000       6.710752       182.6088 
 226   0.0000       6.712639       182.6602 
 227   0.0000       6.894675       187.6136 
 228   0.0000       8.188191       222.8120 
 229   0.0000       8.188351       222.8164 
 230   0.0000       8.202163       223.1922 
 231   0.0000       8.202433       223.1995 
 232   0.0000       8.317876       226.3409 
 233   0.0000       8.319898       226.3959 
 234   0.0000       8.707508       236.9434 
 235   0.0000       8.711622       237.0553 
 236   0.0000       8.888420       241.8662 
 237   0.0000       9.068121       246.7561 
 238   0.0000       9.068239       246.7593 
 239   0.0000       9.085699       247.2344 
 240   0.0000       9.085714       247.2348 
 241   0.0000       9.300515       253.0799 
 242   0.0000       9.300877       253.0897 
 243   0.0000       9.824180       267.3295 
 244   0.0000       9.824891       267.3489 
 245   0.0000       9.874537       268.6998 
 246   0.0000      11.582148       315.1663 
 247   0.0000      11.582356       315.1719 
 248   0.0000      11.661300       317.3201 
 249   0.0000      11.661955       317.3379 
 250   0.0000      11.704343       318.4914 
 251   0.0000      11.713705       318.7461 
 252   0.0000      12.084354       328.8320 
 253   0.0000      12.801473       348.3458 
 254   0.0000      12.801475       348.3458 
 255   0.0000      12.835896       349.2825 
 256   0.0000      12.835908       349.2828 
 257   0.0000      12.956243       352.5573 
 258   0.0000      12.959831       352.6549 
 259   0.0000      13.140716       357.5771 
 260   0.0000      16.818899       457.6655 
 261   0.0000      16.819316       457.6768 
 262   0.0000      16.896235       459.7699 
 263   0.0000      16.901667       459.9177 
 264   0.0000      17.356980       472.3074 
 265   0.0000      17.550302       477.5680 
 266   0.0000      17.550394       477.5705 
 267   0.0000      17.700143       481.6454 
 268   0.0000      17.702018       481.6964 
 269   0.0000      18.140801       493.6363 
 270   0.0000      28.972499       788.3818 
 271   0.0000      38.577076      1049.7356 
 272   0.0000      62.328975      1696.0576 
 273   0.0000      62.329085      1696.0606 
 274   0.0000      62.377381      1697.3748 
 275   0.0000      62.377508      1697.3783 
 276   0.0000      62.643910      1704.6274 
 277   0.0000      65.741295      1788.9116 
 278   0.0000      65.741331      1788.9126 
 279   0.0000      65.831965      1791.3788 
 280   0.0000      65.832170      1791.3844 
 281   0.0000      66.094663      1798.5272 

                    ********************************
                    * MULLIKEN POPULATION ANALYSIS *
                    ********************************

--------------------------------------------
MULLIKEN ATOMIC CHARGES AND SPIN POPULATIONS
--------------------------------------------
   0 S :   -0.114973    0.792843
   1 Cl:    0.114973    0.207157
Sum of atomic charges         :    0.0000000
Sum of atomic spin populations:    1.0000000

-----------------------------------------------------
MULLIKEN REDUCED ORBITAL CHARGES AND SPIN POPULATIONS
-----------------------------------------------------
CHARGE
  0 S s       :     6.026083  s :     6.026083
      pz      :     2.861577  p :     9.938973
      px      :     3.147072
      py      :     3.930324
      dz2     :     0.042063  d :     0.130121
      dxz     :     0.042067
      dyz     :     0.045044
      dx2y2   :     0.000947
      dxy     :     0.000000
      f0      :     0.006170  f :     0.018787
      f+1     :     0.007416
      f-1     :     0.004810
      f+2     :     0.000048
      f-2     :     0.000000
      f+3     :     0.000167
      f-3     :     0.000175
      g0      :     0.001267  g :     0.001218
      g+1     :     0.000514
      g-1     :    -0.000573
      g+2     :     0.000001
      g-2     :     0.000000
      g+3     :     0.000004
      g-3     :     0.000004
      g+4     :     0.000001
      g-4     :     0.000000
      h0      :     0.000167  h :    -0.000211
      h+1     :    -0.000011
      h-1     :    -0.000369
      h+2     :    -0.000000
      h-2     :    -0.000000
      h+3     :     0.000001
      h-3     :     0.000001
      h+4     :     0.000000
      h-4     :     0.000000
      h+5     :     0.000000
      h-5     :     0.000000
  1 Cls       :     5.891049  s :     5.891049
      pz      :     3.150740  p :    10.857063
      px      :     3.758870
      py      :     3.947453
      dz2     :     0.018946  d :     0.123360
      dxz     :     0.037864
      dyz     :     0.066478
      dx2y2   :     0.000072
      dxy     :     0.000000
      f0      :     0.001313  f :     0.014435
      f+1     :     0.005827
      f-1     :     0.007227
      f+2     :     0.000006
      f-2     :     0.000000
      f+3     :     0.000028
      f-3     :     0.000034
      g0      :    -0.000331  g :    -0.000462
      g+1     :     0.000197
      g-1     :    -0.000356
      g+2     :    -0.000006
      g-2     :    -0.000000
      g+3     :     0.000015
      g-3     :     0.000019
      g+4     :     0.000000
      g-4     :     0.000000
      h0      :    -0.000110  h :    -0.000417
      h+1     :    -0.000035
      h-1     :    -0.000280
      h+2     :    -0.000003
      h-2     :    -0.000000
      h+3     :     0.000004
      h-3     :     0.000006
      h+4     :     0.000000
      h-4     :     0.000000
      h+5     :    -0.000000
      h-5     :    -0.000000

SPIN
  0 S s       :     0.003283  s :     0.003283
      pz      :     0.007901  p :     0.789552
      px      :     0.783021
      py      :    -0.001370
      dz2     :     0.000818  d :     0.005424
      dxz     :     0.004199
      dyz     :    -0.000383
      dx2y2   :     0.000791
      dxy     :     0.000000
      f0      :    -0.000633  f :    -0.003165
      f+1     :    -0.002538
      f-1     :    -0.000361
      f+2     :     0.000042
      f-2     :     0.000000
      f+3     :     0.000159
      f-3     :     0.000166
      g0      :    -0.000016  g :    -0.001853
      g+1     :    -0.001561
      g-1     :    -0.000279
      g+2     :    -0.000001
      g-2     :    -0.000000
      g+3     :     0.000003
      g-3     :     0.000004
      g+4     :    -0.000001
      g-4     :    -0.000000
      h0      :     0.000011  h :    -0.000398
      h+1     :    -0.000370
      h-1     :    -0.000040
      h+2     :    -0.000001
      h-2     :    -0.000000
      h+3     :     0.000000
      h-3     :     0.000001
      h+4     :    -0.000000
      h-4     :    -0.000000
      h+5     :    -0.000000
      h-5     :    -0.000000
  1 Cls       :     0.003479  s :     0.003479
      pz      :    -0.016329  p :     0.179029
      px      :     0.192838
      py      :     0.002521
      dz2     :     0.000413  d :     0.020111
      dxz     :     0.020609
      dyz     :    -0.000974
      dx2y2   :     0.000064
      dxy     :     0.000000
      f0      :     0.000133  f :     0.003466
      f+1     :     0.002985
      f-1     :     0.000287
      f+2     :     0.000004
      f-2     :     0.000000
      f+3     :     0.000027
      f-3     :     0.000030
      g0      :     0.000046  g :     0.000800
      g+1     :     0.000476
      g-1     :     0.000253
      g+2     :    -0.000005
      g-2     :    -0.000000
      g+3     :     0.000013
      g-3     :     0.000017
      g+4     :    -0.000000
      g-4     :    -0.000000
      h0      :     0.000005  h :     0.000272
      h+1     :     0.000136
      h-1     :     0.000122
      h+2     :    -0.000002
      h-2     :    -0.000000
      h+3     :     0.000005
      h-3     :     0.000006
      h+4     :    -0.000000
      h-4     :    -0.000000
      h+5     :     0.000000
      h-5     :     0.000000


                     *******************************
                     * LOEWDIN POPULATION ANALYSIS *
                     *******************************

-------------------------------------------
LOEWDIN ATOMIC CHARGES AND SPIN POPULATIONS
-------------------------------------------
   0 S :    0.136377    0.658187
   1 Cl:   -0.136377    0.341813

----------------------------------------------------
LOEWDIN REDUCED ORBITAL CHARGES AND SPIN POPULATIONS
----------------------------------------------------
CHARGE
  0 S s       :     5.388025  s :     5.388025
      pz      :     2.953624  p :     9.411443
      px      :     2.939411
      py      :     3.518408
      dz2     :     0.221363  d :     0.505400
      dxz     :     0.129877
      dyz     :     0.153308
      dx2y2   :     0.000852
      dxy     :     0.000000
      f0      :     0.113058  f :     0.291164
      f+1     :     0.081875
      f-1     :     0.095811
      f+2     :     0.000051
      f-2     :     0.000000
      f+3     :     0.000177
      f-3     :     0.000191
      g0      :     0.057573  g :     0.174767
      g+1     :     0.051882
      g-1     :     0.065300
      g+2     :     0.000003
      g-2     :     0.000000
      g+3     :     0.000003
      g-3     :     0.000004
      g+4     :     0.000001
      g-4     :     0.000000
      h0      :     0.026873  h :     0.092824
      h+1     :     0.029754
      h-1     :     0.036192
      h+2     :     0.000002
      h-2     :     0.000000
      h+3     :     0.000001
      h-3     :     0.000001
      h+4     :     0.000000
      h-4     :     0.000000
      h+5     :     0.000000
      h-5     :     0.000000
  1 Cls       :     5.497057  s :     5.497057
      pz      :     3.322706  p :    10.505432
      px      :     3.513301
      py      :     3.669425
      dz2     :     0.227236  d :     0.548600
      dxz     :     0.111988
      dyz     :     0.209303
      dx2y2   :     0.000073
      dxy     :     0.000000
      f0      :     0.114310  f :     0.315935
      f+1     :     0.071480
      f-1     :     0.130080
      f+2     :     0.000025
      f-2     :     0.000000
      f+3     :     0.000019
      f-3     :     0.000021
      g0      :     0.054015  g :     0.181514
      g+1     :     0.045707
      g-1     :     0.081744
      g+2     :     0.000028
      g-2     :     0.000000
      g+3     :     0.000009
      g-3     :     0.000012
      g+4     :     0.000000
      g-4     :     0.000000
      h0      :     0.023094  h :     0.087838
      h+1     :     0.024504
      h-1     :     0.040189
      h+2     :     0.000032
      h-2     :     0.000000
      h+3     :     0.000009
      h-3     :     0.000011
      h+4     :     0.000000
      h-4     :     0.000000
      h+5     :     0.000000
      h-5     :     0.000000

SPIN
  0 S s       :     0.002106  s :     0.002106
      pz      :     0.004140  p :     0.603351
      px      :     0.596979
      py      :     0.002231
      dz2     :     0.001547  d :     0.022178
      dxz     :     0.020865
      dyz     :    -0.000952
      dx2y2   :     0.000718
      dxy     :     0.000000
      f0      :    -0.001199  f :     0.012031
      f+1     :     0.012981
      f-1     :    -0.000146
      f+2     :     0.000045
      f-2     :     0.000000
      f+3     :     0.000170
      f-3     :     0.000181
      g0      :    -0.000168  g :     0.012163
      g+1     :     0.012449
      g-1     :    -0.000122
      g+2     :     0.000000
      g-2     :     0.000000
      g+3     :     0.000002
      g-3     :     0.000003
      g+4     :    -0.000001
      g-4     :    -0.000000
      h0      :    -0.000100  h :     0.006357
      h+1     :     0.006393
      h-1     :     0.000062
      h+2     :     0.000001
      h-2     :     0.000000
      h+3     :     0.000000
      h-3     :     0.000000
      h+4     :    -0.000000
      h-4     :    -0.000000
      h+5     :    -0.000000
      h-5     :    -0.000000
  1 Cls       :     0.000396  s :     0.000396
      pz      :    -0.008587  p :     0.148577
      px      :     0.156593
      py      :     0.000570
      dz2     :     0.000635  d :     0.075086
      dxz     :     0.077222
      dyz     :    -0.002833
      dx2y2   :     0.000062
      dxy     :     0.000000
      f0      :     0.000454  f :     0.059083
      f+1     :     0.058453
      f-1     :     0.000121
      f+2     :     0.000017
      f-2     :     0.000000
      f+3     :     0.000018
      f-3     :     0.000019
      g0      :     0.000073  g :     0.039963
      g+1     :     0.039364
      g-1     :     0.000487
      g+2     :     0.000022
      g-2     :     0.000000
      g+3     :     0.000008
      g-3     :     0.000010
      g+4     :    -0.000000
      g-4     :    -0.000000
      h0      :    -0.000189  h :     0.018708
      h+1     :     0.018494
      h-1     :     0.000357
      h+2     :     0.000026
      h-2     :     0.000000
      h+3     :     0.000009
      h-3     :     0.000011
      h+4     :    -0.000000
      h-4     :    -0.000000
      h+5     :    -0.000000
      h-5     :    -0.000000


                      *****************************
                      * MAYER POPULATION ANALYSIS *
                      *****************************

  NA   - Mulliken gross atomic population
  ZA   - Total nuclear charge
  QA   - Mulliken gross atomic charge
  VA   - Mayer's total valence
  BVA  - Mayer's bonded valence
  FA   - Mayer's free valence

  ATOM       NA         ZA         QA         VA         BVA        FA
  0 S     16.1150    16.0000    -0.1150     2.1147     1.4788     0.6360
  1 Cl    16.8850    17.0000     0.1150     1.5335     1.4788     0.0547

  Mayer bond orders larger than 0.1
B(  0-S ,  1-Cl) :   1.4788 

-------
TIMINGS
-------

Total SCF time: 0 days 0 hours 9 min 41 sec 

Total time                  ....     581.324 sec
Sum of individual times     ....     580.596 sec  ( 99.9%)

Fock matrix formation       ....     578.537 sec  ( 99.5%)
  XC integration            ....       7.331 sec  (  1.3% of F)
    Basis function eval.    ....       0.681 sec  (  9.3% of XC)
    Density eval.           ....       1.388 sec  ( 18.9% of XC)
    XC-Functional eval.     ....       0.131 sec  (  1.8% of XC)
    XC-Potential eval.      ....       4.616 sec  ( 63.0% of XC)
Diagonalization             ....       0.759 sec  (  0.1%)
Density matrix formation    ....       0.017 sec  (  0.0%)
Population analysis         ....       0.069 sec  (  0.0%)
Initial guess               ....       0.422 sec  (  0.1%)
Orbital Transformation      ....       0.000 sec  (  0.0%)
Orbital Orthonormalization  ....       0.000 sec  (  0.0%)
DIIS solution               ....       0.478 sec  (  0.1%)
Grid generation             ....       0.314 sec  (  0.1%)

-------------------------   --------------------
FINAL SINGLE POINT ENERGY      -858.050795147937
-------------------------   --------------------


                            ***************************************
                            *     ORCA property calculations      *
                            ***************************************

                                    ---------------------
                                    Active property flags
                                    ---------------------
   (+) Dipole Moment


------------------------------------------------------------------------------
                       ORCA ELECTRIC PROPERTIES CALCULATION
------------------------------------------------------------------------------

Dipole Moment Calculation                       ... on
Quadrupole Moment Calculation                   ... off
Polarizability Calculation                      ... off
GBWName                                         ... scl_pbe_+0001_z.gbw
Electron density file                           ... scl_pbe_+0001_z.scfp.tmp
The origin for moment calculation is the CENTER OF MASS  = ( 0.000000,  0.000000  1.960187)

-------------
DIPOLE MOMENT
-------------
                                X             Y             Z
Electronic contribution:      0.00000      -0.00000       1.35079
Nuclear contribution   :      0.00000       0.00000      -1.22898
                        -----------------------------------------
Total Dipole Moment    :      0.00000      -0.00000       0.12181
                        -----------------------------------------
Magnitude (a.u.)       :      0.12181
Magnitude (Debye)      :      0.30963



--------------------
Rotational spectrum 
--------------------
 
Rotational constants in cm-1:     0.000000     0.256627     0.256627 
Rotational constants in MHz :     0.000000  7693.471946  7693.471946 

 Dipole components along the rotational axes: 
x,y,z [a.u.] :     0.121814    -0.000000     0.000000 
x,y,z [Debye]:     0.309627    -0.000000     0.000000 

 

Timings for individual modules:

Sum of individual times         ...      583.801 sec (=   9.730 min)
GTO integral calculation        ...        2.156 sec (=   0.036 min)   0.4 %
SCF iterations                  ...      581.645 sec (=   9.694 min)  99.6 %
                             ****ORCA TERMINATED NORMALLY****
TOTAL RUN TIME: 0 days 0 hours 9 minutes 44 seconds 736 msec
