
                                 *****************
                                 * O   R   C   A *
                                 *****************

           --- An Ab Initio, DFT and Semiempirical electronic structure package ---

                  #######################################################
                  #                        -***-                        #
                  #          Department of theory and spectroscopy      #
                  #               Directorship: Frank Neese             #
                  #        Max Planck Institute fuer Kohlenforschung    #
                  #                Kaiser Wilhelm Platz 1               #
                  #                 D-45470 Muelheim/Ruhr               #
                  #                      Germany                        #
                  #                                                     #
                  #                  All rights reserved                #
                  #                        -***-                        #
                  #######################################################


                         Program Version 4.1.2  - RELEASE  -


 With contributions from (in alphabetic order):
   Daniel Aravena         : Magnetic Properties
   Michael Atanasov       : Ab Initio Ligand Field Theory
   Alexander A. Auer      : GIAO ZORA
   Ute Becker             : Parallelization
   Giovanni Bistoni       : ED, Open-shell LED
   Martin Brehm           : Molecular dynamics
   Dmytro Bykov           : SCF Hessian
   Vijay G. Chilkuri      : MRCI spin determinant printing
   Dipayan Datta          : RHF DLPNO-CCSD density
   Achintya Kumar Dutta   : EOM-CC, STEOM-CC
   Dmitry Ganyushin       : Spin-Orbit,Spin-Spin,Magnetic field MRCI
   Miquel Garcia          : C-PCM Hessian
   Yang Guo               : DLPNO-NEVPT2, CIM, IAO-localization
   Andreas Hansen         : Spin unrestricted coupled pair/coupled cluster methods
   Benjamin Helmich-Paris : CASSCF linear response (MC-RPA)
   Lee Huntington         : MR-EOM, pCC
   Robert Izsak           : Overlap fitted RIJCOSX, COSX-SCS-MP3, EOM
   Christian Kollmar      : KDIIS, OOCD, Brueckner-CCSD(T), CCSD density
   Simone Kossmann        : Meta GGA functionals, TD-DFT gradient, OOMP2, MP2 Hessian
   Martin Krupicka        : AUTO-CI
   Lucas Lang             : DCDCAS
   Dagmar Lenk            : GEPOL surface, SMD
   Dimitrios Liakos       : Extrapolation schemes; parallel MDCI
   Dimitrios Manganas     : ROCIS; embedding schemes
   Dimitrios Pantazis     : SARC Basis sets
   Taras Petrenko         : DFT Hessian,TD-DFT gradient, ASA, ECA, R-Raman, ABS, FL, XAS/XES, NRVS
   Peter Pinski           : DLPNO-MP2, DLPNO-MP2 Gradient
   Christoph Reimann      : Effective Core Potentials
   Marius Retegan         : Local ZFS, SOC
   Christoph Riplinger    : Optimizer, TS searches, QM/MM, DLPNO-CCSD(T), (RO)-DLPNO pert. Triples
   Tobias Risthaus        : Range-separated hybrids, TD-DFT gradient, RPA, STAB
   Michael Roemelt        : Restricted open shell CIS
   Masaaki Saitow         : Open-shell DLPNO
   Barbara Sandhoefer     : DKH picture change effects
   Avijit Sen             : IP-ROCIS
   Kantharuban Sivalingam : CASSCF convergence, NEVPT2, FIC-MRCI
   Bernardo de Souza      : ESD, SOC TD-DFT
   Georgi Stoychev        : AutoAux, RI-MP2 NMR
   Willem Van den Heuvel  : Paramagnetic NMR
   Boris Wezisla          : Elementary symmetry handling
   Frank Wennmohs         : Technical directorship


 We gratefully acknowledge several colleagues who have allowed us to
 interface, adapt or use parts of their codes:
   Stefan Grimme, W. Hujo, H. Kruse,             : VdW corrections, initial TS optimization,
                  C. Bannwarth                     DFT functionals, gCP, sTDA/sTD-DF
   Ed Valeev                                     : LibInt (2-el integral package), F12 methods
   Garnet Chan, S. Sharma, J. Yang, R. Olivares  : DMRG
   Ulf Ekstrom                                   : XCFun DFT Library
   Mihaly Kallay                                 : mrcc  (arbitrary order and MRCC methods)
   Andreas Klamt, Michael Diedenhofen            : otool_cosmo (COSMO solvation model)
   Jiri Pittner, Ondrej Demel                    : Mk-CCSD
   Frank Weinhold                                : gennbo (NPA and NBO analysis)
   Christopher J. Cramer and Donald G. Truhlar   : smd solvation model
   Lars Goerigk                                  : TD-DFT with DH, B97 family of functionals
   V. Asgeirsson, H. Jonsson                     : NEB implementation
   FAccTs GmbH                                   : IRC, NEB, NEB-TS, Multilevel


 Your calculation uses the libint2 library for the computation of 2-el integrals
 For citations please refer to: http://libint.valeyev.net

 This ORCA versions uses:
   CBLAS   interface :  Fast vector & matrix operations
   LAPACKE interface :  Fast linear algebra routines
   SCALAPACK package :  Parallel linear algebra routines


----- Orbital basis set information -----
Your calculation utilizes the basis: aug-pc-4
   H, C-F              : F. Jensen, J. Chem. Phys. 115, 9113 (2001).
                         F. Jensen, J. Chem. Phys. 116, 7372 (2002).
                         F. Jensen, J. Chem. Phys. 117, 9234 (2002).
   Si-Cl               : F. Jensen, T. Helgaker, J. Chem. Phys. 121, 3463 (2004).
   He-B, Ne-Mg, Al, Ar : F. Jensen, J. Phys. Chem. A 111, 11198 (2007).
   K, Ca, Ga-Kr        : F. Jensen, J. Chem. Phys. 136, 094110 (2012).
   Sc-Zn               : F. Jensen, J. Chem. Phys. 138, 014107 (2013).

================================================================================
                                        WARNINGS
                       Please study these warnings very carefully!
================================================================================


INFO   : the flag for use of LIBINT has been found!

================================================================================
                                       INPUT FILE
================================================================================
NAME = sf_pbe_-0001_z.inp
|  1> !uks pbe nori aug-pc-4 grid5 nofinalgrid verytightscf
|  2> 
|  3> %maxcore 6000
|  4> 
|  5> %pal nprocs 4 end
|  6> 
|  7> %scf
|  8> 	efield 0.0, 0.0, -0.001
|  9> 	maxiter 200
| 10> end
| 11> 
| 12> * xyz 0 2
| 13> S 0.0000 0.0000 0.0000
| 14> F 0.0000 0.0000 1.6006
| 15> *
| 16> 
| 17>                          ****END OF INPUT****
================================================================================

                       ****************************
                       * Single Point Calculation *
                       ****************************

---------------------------------
CARTESIAN COORDINATES (ANGSTROEM)
---------------------------------
  S      0.000000    0.000000    0.000000
  F      0.000000    0.000000    1.600600

----------------------------
CARTESIAN COORDINATES (A.U.)
----------------------------
  NO LB      ZA    FRAG     MASS         X           Y           Z
   0 S    16.0000    0    32.060    0.000000    0.000000    0.000000
   1 F     9.0000    0    18.998    0.000000    0.000000    3.024696

--------------------------------
INTERNAL COORDINATES (ANGSTROEM)
--------------------------------
 S      0   0   0     0.000000000000     0.00000000     0.00000000
 F      1   0   0     1.600600000000     0.00000000     0.00000000

---------------------------
INTERNAL COORDINATES (A.U.)
---------------------------
 S      0   0   0     0.000000000000     0.00000000     0.00000000
 F      1   0   0     3.024695649954     0.00000000     0.00000000

---------------------
BASIS SET INFORMATION
---------------------
There are 2 groups of distinct atoms

 Group   1 Type S   : 44s27p7d4f3g2h contracted to 8s7p7d4f3g2h pattern {15121211111/111111111/1111111/1111/111/11}
 Group   2 Type F   : 27s12p7d4f3g2h contracted to 9s8p7d4f3g2h pattern {1191111111/51111111/1111111/1111/111/11}

Atom   0S    basis set group =>   1
Atom   1F    basis set group =>   2


           ************************************************************
           *        Program running with 4 parallel MPI-processes     *
           *              working on a common directory               *
           ************************************************************
------------------------------------------------------------------------------
                           ORCA GTO INTEGRAL CALCULATION
------------------------------------------------------------------------------

                         BASIS SET STATISTICS AND STARTUP INFO

 # of primitive gaussian shells          ...  142
 # of primitive gaussian functions       ...  412
 # of contracted shells                  ...   64
 # of contracted basis functions         ...  286
 Highest angular momentum                ...    5
 Maximum contraction depth               ...   15
 Integral package used                   ... LIBINT
 Integral threshhold            Thresh   ...  1.000e-12
 Primitive cut-off              TCut     ...  1.000e-14


------------------------------ INTEGRAL EVALUATION ----------------------------


 * One electron integrals 
 Pre-screening matrix                    ... done
 Shell pair data                         ... done (   0.001 sec)


An Electric Field will be added: 0.000e+00 0.000e+00 -1.000e-03 au

  ... done adding electric field perturbation



           ************************************************************
           *        Program running with 4 parallel MPI-processes     *
           *              working on a common directory               *
           ************************************************************
-------------------------------------------------------------------------------
                                 ORCA SCF
-------------------------------------------------------------------------------

------------
SCF SETTINGS
------------
Hamiltonian:
 Density Functional     Method          .... DFT(GTOs)
 Exchange Functional    Exchange        .... PBE
   PBE kappa parameter   XKappa         ....  0.804000
   PBE mue parameter    XMuePBE         ....  0.219520
 Correlation Functional Correlation     .... PBE
   PBE beta parameter  CBetaPBE         ....  0.066725
 LDA part of GGA corr.  LDAOpt          .... PW91-LDA
 Gradients option       PostSCFGGA      .... off
   Density functional embedding theory  .... OFF
   NL short-range parameter             ....  6.400000


General Settings:
 Integral files         IntName         .... sf_pbe_-0001_z
 Hartree-Fock type      HFTyp           .... UHF
 Total Charge           Charge          ....    0
 Multiplicity           Mult            ....    2
 Number of Electrons    NEL             ....   25
 Basis Dimension        Dim             ....  286
 Nuclear Repulsion      ENuc            ....     47.6080957111 Eh

Convergence Acceleration:
 DIIS                   CNVDIIS         .... on
   Start iteration      DIISMaxIt       ....    12
   Startup error        DIISStart       ....  0.200000
   # of expansion vecs  DIISMaxEq       ....     5
   Bias factor          DIISBfac        ....   1.050
   Max. coefficient     DIISMaxC        ....  10.000
 Newton-Raphson         CNVNR           .... off
 SOSCF                  CNVSOSCF        .... off
 Level Shifting         CNVShift        .... on
   Level shift para.    LevelShift      ....    0.2500
   Turn off err/grad.   ShiftErr        ....    0.0010
 Zerner damping         CNVZerner       .... off
 Static damping         CNVDamp         .... on
   Fraction old density DampFac         ....    0.7000
   Max. Damping (<1)    DampMax         ....    0.9800
   Min. Damping (>=0)   DampMin         ....    0.0000
   Turn off err/grad.   DampErr         ....    0.1000
 Fernandez-Rico         CNVRico         .... off

SCF Procedure:
 Maximum # iterations   MaxIter         ....   200
 SCF integral mode      SCFMode         .... Direct
   Integral package                     .... LIBINT
 Reset frequency        DirectResetFreq ....    20
 Integral Threshold     Thresh          ....  1.000e-12 Eh
 Primitive CutOff       TCut            ....  1.000e-14 Eh

Convergence Tolerance:
 Convergence Check Mode ConvCheckMode   .... Total+1el-Energy
 Convergence forced     ConvForced      .... 0
 Energy Change          TolE            ....  1.000e-09 Eh
 1-El. energy change                    ....  1.000e-06 Eh
 DIIS Error             TolErr          ....  1.000e-08


Diagonalization of the overlap matrix:
Smallest eigenvalue                        ... 1.366e-05
Time for diagonalization                   ...    0.014 sec
Threshold for overlap eigenvalues          ... 1.000e-08
Number of eigenvalues below threshold      ... 0
Time for construction of square roots      ...    0.011 sec
Total time needed                          ...    0.025 sec

-------------------
DFT GRID GENERATION
-------------------

General Integration Accuracy     IntAcc      ...  5.010
Radial Grid Type                 RadialGrid  ... Gauss-Chebyshev
Angular Grid (max. acc.)         AngularGrid ... Lebedev-434
Angular grid pruning method      GridPruning ... 3 (G Style)
Weight generation scheme         WeightScheme... Becke
Basis function cutoff            BFCut       ...    1.0000e-12
Integration weight cutoff        WCut        ...    1.0000e-14
Grids for H and He will be reduced by one unit

# of grid points (after initial pruning)     ...  22558 (   0.0 sec)
# of grid points (after weights+screening)   ...  22492 (   0.0 sec)
nearest neighbour list constructed           ...    0.0 sec
Grid point re-assignment to atoms done       ...    0.0 sec
Grid point division into batches done        ...    0.2 sec
Reduced shell lists constructed in    0.2 sec

Total number of grid points                  ...    22492
Total number of batches                      ...      352
Average number of points per batch           ...       63
Average number of grid points per atom       ...    11246
Average number of shells per batch           ...    36.22 (56.60%)
Average number of basis functions per batch  ...   167.91 (58.71%)
Average number of large shells per batch     ...    30.72 (84.80%)
Average number of large basis fcns per batch ...   144.43 (86.01%)
Maximum spatial batch extension              ...  18.71, 18.71, 15.96 au
Average spatial batch extension              ...   1.45,  1.45,  1.28 au

Time for grid setup =    0.264 sec

------------------------------
INITIAL GUESS: MODEL POTENTIAL
------------------------------
Loading Hartree-Fock densities                     ... done
Calculating cut-offs                               ... done
Setting up the integral package                    ... done
Initializing the effective Hamiltonian             ... done
Starting the Coulomb interaction                   ... done (   0.0 sec)
Reading the grid                                   ... done
Mapping shells                                     ... done
Starting the XC term evaluation                    ... done (   0.2 sec)
  promolecular density results
     # of electrons  =     25.000000708
     EX              =    -34.840625308
     EC              =     -0.921356085
     EX+EC           =    -35.761981393
Transforming the Hamiltonian                       ... done (   0.0 sec)
Diagonalizing the Hamiltonian                      ... done (   0.0 sec)
Back transforming the eigenvectors                 ... done (   0.0 sec)
Now organizing SCF variables                       ... done
                      ------------------
                      INITIAL GUESS DONE (   0.6 sec)
                      ------------------
--------------
SCF ITERATIONS
--------------
ITER       Energy         Delta-E        Max-DP      RMS-DP      [F,P]     Damp
               ***  Starting incremental Fock matrix formation  ***
  0   -497.7646614576   0.000000000000 0.00781027  0.00010199  0.1168932 0.7000
  1   -497.7726266829  -0.007965225284 0.00591973  0.00006404  0.0272073 0.7000
                               ***Turning on DIIS***
  2   -497.7746436256  -0.002016942715 0.01530148  0.00014171  0.0133450 0.0000
  3   -497.7807702215  -0.006126595813 0.00290797  0.00003145  0.0098728 0.0000
  4   -497.7808925784  -0.000122356991 0.00120261  0.00001196  0.0126605 0.0000
  5   -497.7810264125  -0.000133834061 0.00122373  0.00000906  0.0051846 0.0000
  6   -497.7810542108  -0.000027798286 0.00049276  0.00000430  0.0015331 0.0000
  7   -497.7810580419  -0.000003831106 0.00023569  0.00000247  0.0005184 0.0000
  8   -497.7810589548  -0.000000912865 0.00006772  0.00000057  0.0000953 0.0000
  9   -497.7810589848  -0.000000030044 0.00002722  0.00000026  0.0000797 0.0000
 10   -497.7810589961  -0.000000011314 0.00001260  0.00000007  0.0000198 0.0000
 11   -497.7810589968  -0.000000000687 0.00000460  0.00000003  0.0000041 0.0000
 12   -497.7810589969  -0.000000000101 0.00000156  0.00000002  0.0000027 0.0000
 13   -497.7810589969  -0.000000000028 0.00000449  0.00000003  0.0000002 0.0000
 14   -497.7810589969  -0.000000000004 0.00000101  0.00000001  0.0000001 0.0000
                 **** Energy Check signals convergence ****

               *****************************************************
               *                     SUCCESS                       *
               *           SCF CONVERGED AFTER  15 CYCLES          *
               *****************************************************


----------------
TOTAL SCF ENERGY
----------------

Total Energy       :         -497.78105900 Eh          -13545.31125 eV

Components:
Nuclear Repulsion  :           47.60809571 Eh            1295.48215 eV
Electronic Energy  :         -545.38915471 Eh          -14840.79339 eV
One Electron Energy:         -783.42746273 Eh          -21318.14505 eV
Two Electron Energy:          238.03830802 Eh            6477.35166 eV

Virial components:
Potential Energy   :         -994.97903144 Eh          -27074.75590 eV
Kinetic Energy     :          497.19797245 Eh           13529.44465 eV
Virial Ratio       :            2.00117275


DFT components:
N(Alpha)           :       13.000000937650 electrons
N(Beta)            :       12.000000933999 electrons
N(Total)           :       25.000001871649 electrons
E(X)               :      -34.912835962497 Eh       
E(C)               :       -0.914002938884 Eh       
E(XC)              :      -35.826838901380 Eh       
DFET-embed. en.    :        0.000000000000 Eh       

---------------
SCF CONVERGENCE
---------------

  Last Energy change         ...   -1.4779e-12  Tolerance :   1.0000e-09
  Last MAX-Density change    ...    1.4438e-06  Tolerance :   1.0000e-08
  Last RMS-Density change    ...    8.3208e-09  Tolerance :   1.0000e-09
  Last DIIS Error            ...    2.2947e-08  Tolerance :   1.0000e-08

             **** THE GBW FILE WAS UPDATED (sf_pbe_-0001_z.gbw) ****
             **** DENSITY FILE WAS UPDATED (sf_pbe_-0001_z.scfp.tmp) ****
             **** ENERGY FILE WAS UPDATED (sf_pbe_-0001_z.en.tmp) ****
----------------------
UHF SPIN CONTAMINATION
----------------------

Warning: in a DFT calculation there is little theoretical justification to 
         calculate <S**2> as in Hartree-Fock theory. We will do it anyways
         but you should keep in mind that the values have only limited relevance

Expectation value of <S**2>     :     0.753546
Ideal value S*(S+1) for S=0.5   :     0.750000
Deviation                       :     0.003546

----------------
ORBITAL ENERGIES
----------------
                 SPIN UP ORBITALS
  NO   OCC          E(Eh)            E(eV) 
   0   1.0000     -88.121448     -2397.9065 
   1   1.0000     -24.315033      -661.6457 
   2   1.0000      -7.752302      -210.9508 
   3   1.0000      -5.777085      -157.2025 
   4   1.0000      -5.776029      -157.1737 
   5   1.0000      -5.758247      -156.6899 
   6   1.0000      -1.155200       -31.4346 
   7   1.0000      -0.666968       -18.1491 
   8   1.0000      -0.465141       -12.6571 
   9   1.0000      -0.448328       -12.1996 
  10   1.0000      -0.430893       -11.7252 
  11   1.0000      -0.268594        -7.3088 
  12   1.0000      -0.227538        -6.1916 
  13   0.0000      -0.107409        -2.9227 
  14   0.0000      -0.006667        -0.1814 
  15   0.0000       0.017867         0.4862 
  16   0.0000       0.020797         0.5659 
  17   0.0000       0.025057         0.6818 
  18   0.0000       0.057932         1.5764 
  19   0.0000       0.063306         1.7227 
  20   0.0000       0.065164         1.7732 
  21   0.0000       0.075724         2.0605 
  22   0.0000       0.076339         2.0773 
  23   0.0000       0.103138         2.8065 
  24   0.0000       0.107501         2.9253 
  25   0.0000       0.110080         2.9954 
  26   0.0000       0.127777         3.4770 
  27   0.0000       0.129904         3.5349 
  28   0.0000       0.135477         3.6865 
  29   0.0000       0.151129         4.1124 
  30   0.0000       0.204416         5.5624 
  31   0.0000       0.204632         5.5683 
  32   0.0000       0.216271         5.8850 
  33   0.0000       0.224562         6.1106 
  34   0.0000       0.224569         6.1108 
  35   0.0000       0.230285         6.2664 
  36   0.0000       0.231124         6.2892 
  37   0.0000       0.242239         6.5916 
  38   0.0000       0.245607         6.6833 
  39   0.0000       0.248961         6.7746 
  40   0.0000       0.265250         7.2178 
  41   0.0000       0.272733         7.4214 
  42   0.0000       0.292281         7.9534 
  43   0.0000       0.294851         8.0233 
  44   0.0000       0.334063         9.0903 
  45   0.0000       0.343532         9.3480 
  46   0.0000       0.358729         9.7615 
  47   0.0000       0.359392         9.7795 
  48   0.0000       0.377132        10.2623 
  49   0.0000       0.388142        10.5619 
  50   0.0000       0.388183        10.5630 
  51   0.0000       0.389574        10.6009 
  52   0.0000       0.400082        10.8868 
  53   0.0000       0.400084        10.8868 
  54   0.0000       0.420826        11.4512 
  55   0.0000       0.453569        12.3422 
  56   0.0000       0.453836        12.3495 
  57   0.0000       0.456791        12.4299 
  58   0.0000       0.461509        12.5583 
  59   0.0000       0.468534        12.7495 
  60   0.0000       0.500155        13.6099 
  61   0.0000       0.513872        13.9832 
  62   0.0000       0.541736        14.7414 
  63   0.0000       0.579965        15.7816 
  64   0.0000       0.580663        15.8007 
  65   0.0000       0.599300        16.3078 
  66   0.0000       0.599304        16.3079 
  67   0.0000       0.600856        16.3501 
  68   0.0000       0.600860        16.3502 
  69   0.0000       0.617831        16.8120 
  70   0.0000       0.617832        16.8121 
  71   0.0000       0.637673        17.3520 
  72   0.0000       0.637691        17.3525 
  73   0.0000       0.642112        17.4728 
  74   0.0000       0.661850        18.0099 
  75   0.0000       0.662229        18.0202 
  76   0.0000       0.670441        18.2436 
  77   0.0000       0.678638        18.4667 
  78   0.0000       0.691373        18.8132 
  79   0.0000       0.698437        19.0054 
  80   0.0000       0.702274        19.1099 
  81   0.0000       0.754018        20.5179 
  82   0.0000       0.789072        21.4717 
  83   0.0000       0.791128        21.5277 
  84   0.0000       0.792615        21.5682 
  85   0.0000       0.795505        21.6468 
  86   0.0000       0.853575        23.2270 
  87   0.0000       0.853584        23.2272 
  88   0.0000       0.854655        23.2564 
  89   0.0000       0.876057        23.8387 
  90   0.0000       0.876327        23.8461 
  91   0.0000       0.916927        24.9508 
  92   0.0000       0.932015        25.3614 
  93   0.0000       0.955908        26.0116 
  94   0.0000       0.962024        26.1780 
  95   0.0000       0.962028        26.1781 
  96   0.0000       0.991440        26.9785 
  97   0.0000       1.001244        27.2452 
  98   0.0000       1.027195        27.9514 
  99   0.0000       1.028364        27.9832 
 100   0.0000       1.086995        29.5786 
 101   0.0000       1.117881        30.4191 
 102   0.0000       1.154907        31.4266 
 103   0.0000       1.155304        31.4374 
 104   0.0000       1.168431        31.7946 
 105   0.0000       1.183164        32.1955 
 106   0.0000       1.205026        32.7904 
 107   0.0000       1.205027        32.7904 
 108   0.0000       1.225860        33.3573 
 109   0.0000       1.225860        33.3574 
 110   0.0000       1.299502        35.3613 
 111   0.0000       1.309202        35.6252 
 112   0.0000       1.319168        35.8964 
 113   0.0000       1.340964        36.4895 
 114   0.0000       1.341661        36.5084 
 115   0.0000       1.352603        36.8062 
 116   0.0000       1.375687        37.4343 
 117   0.0000       1.414051        38.4783 
 118   0.0000       1.491388        40.5827 
 119   0.0000       1.491429        40.5838 
 120   0.0000       1.526131        41.5281 
 121   0.0000       1.526699        41.5436 
 122   0.0000       1.538581        41.8669 
 123   0.0000       1.759890        47.8890 
 124   0.0000       1.778429        48.3935 
 125   0.0000       1.835153        49.9370 
 126   0.0000       2.043867        55.6164 
 127   0.0000       2.043876        55.6167 
 128   0.0000       2.100490        57.1572 
 129   0.0000       2.105108        57.2829 
 130   0.0000       2.106122        57.3105 
 131   0.0000       2.153635        58.6034 
 132   0.0000       2.164482        58.8985 
 133   0.0000       2.188441        59.5505 
 134   0.0000       2.191920        59.6452 
 135   0.0000       2.193580        59.6904 
 136   0.0000       2.206461        60.0408 
 137   0.0000       2.300938        62.6117 
 138   0.0000       2.324337        63.2484 
 139   0.0000       2.375582        64.6429 
 140   0.0000       2.461578        66.9829 
 141   0.0000       2.461862        66.9907 
 142   0.0000       2.579332        70.1872 
 143   0.0000       2.579338        70.1874 
 144   0.0000       2.583434        70.2988 
 145   0.0000       2.655124        72.2496 
 146   0.0000       2.655152        72.2504 
 147   0.0000       2.676708        72.8369 
 148   0.0000       2.875309        78.2411 
 149   0.0000       2.889792        78.6352 
 150   0.0000       2.967584        80.7521 
 151   0.0000       3.024296        82.2953 
 152   0.0000       3.025722        82.3341 
 153   0.0000       3.214040        87.4585 
 154   0.0000       3.291409        89.5638 
 155   0.0000       3.291430        89.5644 
 156   0.0000       3.469222        94.4023 
 157   0.0000       3.481611        94.7394 
 158   0.0000       3.482712        94.7694 
 159   0.0000       3.499795        95.2343 
 160   0.0000       3.531056        96.0849 
 161   0.0000       3.742829       101.8476 
 162   0.0000       3.774388       102.7063 
 163   0.0000       3.817829       103.8884 
 164   0.0000       3.840439       104.5037 
 165   0.0000       3.864824       105.1672 
 166   0.0000       4.978049       135.4596 
 167   0.0000       5.056848       137.6038 
 168   0.0000       5.056868       137.6044 
 169   0.0000       5.094286       138.6226 
 170   0.0000       5.094311       138.6232 
 171   0.0000       5.113686       139.1505 
 172   0.0000       5.113706       139.1510 
 173   0.0000       5.126060       139.4872 
 174   0.0000       5.126077       139.4876 
 175   0.0000       5.223258       142.1321 
 176   0.0000       5.225097       142.1821 
 177   0.0000       5.235266       142.4588 
 178   0.0000       5.241929       142.6401 
 179   0.0000       5.244302       142.7047 
 180   0.0000       5.387992       146.6147 
 181   0.0000       5.399449       146.9265 
 182   0.0000       5.547478       150.9546 
 183   0.0000       5.569403       151.5512 
 184   0.0000       5.569831       151.5628 
 185   0.0000       5.665551       154.1675 
 186   0.0000       5.687608       154.7677 
 187   0.0000       5.798750       157.7920 
 188   0.0000       5.882347       160.0668 
 189   0.0000       5.904482       160.6691 
 190   0.0000       5.922133       161.1494 
 191   0.0000       6.070823       165.1955 
 192   0.0000       6.070832       165.1957 
 193   0.0000       6.250209       170.0768 
 194   0.0000       6.250299       170.0793 
 195   0.0000       6.962142       189.4495 
 196   0.0000       6.977895       189.8782 
 197   0.0000       7.048671       191.8041 
 198   0.0000       7.076016       192.5482 
 199   0.0000       7.076235       192.5542 
 200   0.0000       7.179953       195.3765 
 201   0.0000       7.179955       195.3765 
 202   0.0000       7.551097       205.4758 
 203   0.0000       7.788661       211.9403 
 204   0.0000       7.788818       211.9445 
 205   0.0000       8.167015       222.2358 
 206   0.0000       8.167048       222.2367 
 207   0.0000       8.223489       223.7725 
 208   0.0000       8.223500       223.7728 
 209   0.0000       8.233131       224.0349 
 210   0.0000       8.447360       229.8644 
 211   0.0000       8.448901       229.9063 
 212   0.0000       8.517094       231.7619 
 213   0.0000       8.537132       232.3072 
 214   0.0000       8.829941       240.2749 
 215   0.0000       8.854928       240.9548 
 216   0.0000       9.677791       263.3461 
 217   0.0000      11.585150       315.2480 
 218   0.0000      11.585156       315.2481 
 219   0.0000      11.650111       317.0156 
 220   0.0000      11.650283       317.0203 
 221   0.0000      11.771508       320.3190 
 222   0.0000      11.788873       320.7915 
 223   0.0000      12.061504       328.2102 
 224   0.0000      12.061739       328.2166 
 225   0.0000      12.297641       334.6358 
 226   0.0000      12.339603       335.7777 
 227   0.0000      12.350799       336.0823 
 228   0.0000      12.619504       343.3942 
 229   0.0000      12.619551       343.3954 
 230   0.0000      12.637193       343.8755 
 231   0.0000      12.637217       343.8762 
 232   0.0000      12.666591       344.6755 
 233   0.0000      12.666612       344.6760 
 234   0.0000      12.844441       349.5150 
 235   0.0000      12.854917       349.8001 
 236   0.0000      12.855644       349.8198 
 237   0.0000      13.129368       357.2683 
 238   0.0000      13.138959       357.5293 
 239   0.0000      13.420627       365.1938 
 240   0.0000      14.164110       385.4250 
 241   0.0000      14.177318       385.7844 
 242   0.0000      14.561451       396.2372 
 243   0.0000      14.908553       405.6823 
 244   0.0000      14.908555       405.6824 
 245   0.0000      14.996496       408.0754 
 246   0.0000      14.996527       408.0762 
 247   0.0000      15.334995       417.2864 
 248   0.0000      15.346248       417.5926 
 249   0.0000      15.357581       417.9010 
 250   0.0000      15.834684       430.8837 
 251   0.0000      16.839026       458.2132 
 252   0.0000      16.839085       458.2148 
 253   0.0000      16.953874       461.3384 
 254   0.0000      16.970836       461.7999 
 255   0.0000      17.910434       487.3677 
 256   0.0000      20.053125       545.6733 
 257   0.0000      20.053637       545.6872 
 258   0.0000      20.084980       546.5401 
 259   0.0000      20.084986       546.5403 
 260   0.0000      20.411849       555.4346 
 261   0.0000      20.412023       555.4394 
 262   0.0000      21.018178       571.9337 
 263   0.0000      21.029155       572.2324 
 264   0.0000      21.605636       587.9193 
 265   0.0000      29.592772       805.2603 
 266   0.0000      30.217467       822.2591 
 267   0.0000      30.218059       822.2752 
 268   0.0000      30.478249       829.3553 
 269   0.0000      30.488867       829.6443 
 270   0.0000      31.075247       845.6005 
 271   0.0000      41.396759      1126.4631 
 272   0.0000      41.407677      1126.7602 
 273   0.0000      41.727597      1135.4656 
 274   0.0000      42.610192      1159.4823 
 275   0.0000      62.320269      1695.8207 
 276   0.0000      62.320356      1695.8231 
 277   0.0000      62.365594      1697.0541 
 278   0.0000      62.377415      1697.3757 
 279   0.0000      62.836934      1709.8799 
 280   0.0000      91.173366      2480.9534 
 281   0.0000      91.173474      2480.9563 
 282   0.0000      91.352955      2485.8403 
 283   0.0000      91.360588      2486.0480 
 284   0.0000      91.765355      2497.0623 
 285   0.0000     201.443598      5481.5590 

                 SPIN DOWN ORBITALS
  NO   OCC          E(Eh)            E(eV) 
   0   1.0000     -88.117122     -2397.7888 
   1   1.0000     -24.311308      -661.5443 
   2   1.0000      -7.747867      -210.8302 
   3   1.0000      -5.774447      -157.1307 
   4   1.0000      -5.763132      -156.8228 
   5   1.0000      -5.755637      -156.6188 
   6   1.0000      -1.147991       -31.2384 
   7   1.0000      -0.641681       -17.4610 
   8   1.0000      -0.450581       -12.2609 
   9   1.0000      -0.427320       -11.6280 
  10   1.0000      -0.427231       -11.6256 
  11   1.0000      -0.216788        -5.8991 
  12   0.0000      -0.203969        -5.5503 
  13   0.0000      -0.093095        -2.5332 
  14   0.0000      -0.000854        -0.0232 
  15   0.0000       0.021397         0.5823 
  16   0.0000       0.024599         0.6694 
  17   0.0000       0.026726         0.7273 
  18   0.0000       0.060746         1.6530 
  19   0.0000       0.065228         1.7749 
  20   0.0000       0.066038         1.7970 
  21   0.0000       0.085616         2.3297 
  22   0.0000       0.088494         2.4081 
  23   0.0000       0.111240         3.0270 
  24   0.0000       0.112005         3.0478 
  25   0.0000       0.117261         3.1908 
  26   0.0000       0.129732         3.5302 
  27   0.0000       0.136346         3.7102 
  28   0.0000       0.139263         3.7895 
  29   0.0000       0.155661         4.2358 
  30   0.0000       0.212573         5.7844 
  31   0.0000       0.214750         5.8436 
  32   0.0000       0.220273         5.9939 
  33   0.0000       0.231954         6.3118 
  34   0.0000       0.232673         6.3313 
  35   0.0000       0.245513         6.6807 
  36   0.0000       0.246033         6.6949 
  37   0.0000       0.247415         6.7325 
  38   0.0000       0.248935         6.7739 
  39   0.0000       0.267548         7.2803 
  40   0.0000       0.272283         7.4092 
  41   0.0000       0.275233         7.4895 
  42   0.0000       0.295312         8.0359 
  43   0.0000       0.298519         8.1231 
  44   0.0000       0.341269         9.2864 
  45   0.0000       0.350238         9.5305 
  46   0.0000       0.363060         9.8794 
  47   0.0000       0.364747         9.9253 
  48   0.0000       0.392388        10.6774 
  49   0.0000       0.394410        10.7324 
  50   0.0000       0.395065        10.7503 
  51   0.0000       0.396442        10.7877 
  52   0.0000       0.408795        11.1239 
  53   0.0000       0.409215        11.1353 
  54   0.0000       0.425835        11.5876 
  55   0.0000       0.462237        12.5781 
  56   0.0000       0.466666        12.6986 
  57   0.0000       0.466871        12.7042 
  58   0.0000       0.468552        12.7500 
  59   0.0000       0.474676        12.9166 
  60   0.0000       0.516137        14.0448 
  61   0.0000       0.521601        14.1935 
  62   0.0000       0.549023        14.9397 
  63   0.0000       0.586444        15.9579 
  64   0.0000       0.588046        16.0015 
  65   0.0000       0.604450        16.4479 
  66   0.0000       0.605054        16.4644 
  67   0.0000       0.607924        16.5425 
  68   0.0000       0.608268        16.5518 
  69   0.0000       0.627710        17.0808 
  70   0.0000       0.627936        17.0870 
  71   0.0000       0.646200        17.5840 
  72   0.0000       0.646384        17.5890 
  73   0.0000       0.646709        17.5978 
  74   0.0000       0.671691        18.2776 
  75   0.0000       0.673924        18.3384 
  76   0.0000       0.679891        18.5008 
  77   0.0000       0.681940        18.5565 
  78   0.0000       0.694995        18.9118 
  79   0.0000       0.702932        19.1278 
  80   0.0000       0.707098        19.2411 
  81   0.0000       0.764480        20.8026 
  82   0.0000       0.796267        21.6675 
  83   0.0000       0.796321        21.6690 
  84   0.0000       0.803078        21.8529 
  85   0.0000       0.806002        21.9324 
  86   0.0000       0.858450        23.3596 
  87   0.0000       0.860212        23.4076 
  88   0.0000       0.860589        23.4178 
  89   0.0000       0.879998        23.9460 
  90   0.0000       0.880964        23.9722 
  91   0.0000       0.933809        25.4102 
  92   0.0000       0.936415        25.4812 
  93   0.0000       0.963442        26.2166 
  94   0.0000       0.963514        26.2185 
  95   0.0000       0.968621        26.3575 
  96   0.0000       1.002128        27.2693 
  97   0.0000       1.003689        27.3118 
  98   0.0000       1.040370        28.3099 
  99   0.0000       1.042633        28.3715 
 100   0.0000       1.089419        29.6446 
 101   0.0000       1.130703        30.7680 
 102   0.0000       1.172206        31.8974 
 103   0.0000       1.172757        31.9123 
 104   0.0000       1.185681        32.2640 
 105   0.0000       1.188069        32.3290 
 106   0.0000       1.211623        32.9699 
 107   0.0000       1.211695        32.9719 
 108   0.0000       1.226896        33.3855 
 109   0.0000       1.226919        33.3862 
 110   0.0000       1.305881        35.5348 
 111   0.0000       1.320314        35.9276 
 112   0.0000       1.320481        35.9321 
 113   0.0000       1.347181        36.6587 
 114   0.0000       1.348410        36.6921 
 115   0.0000       1.380845        37.5747 
 116   0.0000       1.388463        37.7820 
 117   0.0000       1.420976        38.6667 
 118   0.0000       1.515338        41.2344 
 119   0.0000       1.516404        41.2634 
 120   0.0000       1.543949        42.0130 
 121   0.0000       1.547105        42.0989 
 122   0.0000       1.551468        42.2176 
 123   0.0000       1.779594        48.4252 
 124   0.0000       1.784009        48.5453 
 125   0.0000       1.850211        50.3468 
 126   0.0000       2.051798        55.8323 
 127   0.0000       2.052764        55.8585 
 128   0.0000       2.104178        57.2576 
 129   0.0000       2.123786        57.7912 
 130   0.0000       2.126467        57.8641 
 131   0.0000       2.164968        58.9118 
 132   0.0000       2.165729        58.9325 
 133   0.0000       2.197997        59.8106 
 134   0.0000       2.198130        59.8142 
 135   0.0000       2.205613        60.0178 
 136   0.0000       2.207178        60.0604 
 137   0.0000       2.328370        63.3582 
 138   0.0000       2.332260        63.4640 
 139   0.0000       2.378259        64.7157 
 140   0.0000       2.479855        67.4803 
 141   0.0000       2.483098        67.5685 
 142   0.0000       2.587374        70.4060 
 143   0.0000       2.628804        71.5334 
 144   0.0000       2.629286        71.5465 
 145   0.0000       2.688842        73.1671 
 146   0.0000       2.689848        73.1945 
 147   0.0000       2.698502        73.4300 
 148   0.0000       2.891143        78.6720 
 149   0.0000       2.891835        78.6908 
 150   0.0000       2.982331        81.1534 
 151   0.0000       3.044963        82.8576 
 152   0.0000       3.048403        82.9513 
 153   0.0000       3.230938        87.9183 
 154   0.0000       3.339466        90.8715 
 155   0.0000       3.340554        90.9011 
 156   0.0000       3.476191        94.5920 
 157   0.0000       3.509349        95.4942 
 158   0.0000       3.513385        95.6041 
 159   0.0000       3.533459        96.1503 
 160   0.0000       3.541937        96.3810 
 161   0.0000       3.777940       102.8030 
 162   0.0000       3.781006       102.8864 
 163   0.0000       3.831922       104.2719 
 164   0.0000       3.867831       105.2490 
 165   0.0000       3.870396       105.3188 
 166   0.0000       4.992521       135.8534 
 167   0.0000       5.069751       137.9549 
 168   0.0000       5.070962       137.9879 
 169   0.0000       5.132991       139.6758 
 170   0.0000       5.133816       139.6982 
 171   0.0000       5.170739       140.7029 
 172   0.0000       5.170996       140.7100 
 173   0.0000       5.174002       140.7917 
 174   0.0000       5.174244       140.7983 
 175   0.0000       5.240418       142.5990 
 176   0.0000       5.242264       142.6492 
 177   0.0000       5.243193       142.6745 
 178   0.0000       5.250600       142.8761 
 179   0.0000       5.254800       142.9904 
 180   0.0000       5.401072       146.9706 
 181   0.0000       5.401213       146.9745 
 182   0.0000       5.552392       151.0883 
 183   0.0000       5.593382       152.2037 
 184   0.0000       5.598154       152.3335 
 185   0.0000       5.690902       154.8573 
 186   0.0000       5.690955       154.8588 
 187   0.0000       5.801838       157.8760 
 188   0.0000       5.908092       160.7674 
 189   0.0000       5.909998       160.8192 
 190   0.0000       5.935313       161.5081 
 191   0.0000       6.077271       165.3709 
 192   0.0000       6.077277       165.3711 
 193   0.0000       6.257150       170.2657 
 194   0.0000       6.257867       170.2852 
 195   0.0000       6.979394       189.9190 
 196   0.0000       6.980408       189.9466 
 197   0.0000       7.056456       192.0159 
 198   0.0000       7.082206       192.7166 
 199   0.0000       7.082423       192.7225 
 200   0.0000       7.186493       195.5544 
 201   0.0000       7.186566       195.5564 
 202   0.0000       7.561550       205.7602 
 203   0.0000       7.799877       212.2454 
 204   0.0000       7.801117       212.2792 
 205   0.0000       8.216243       223.5753 
 206   0.0000       8.216350       223.5783 
 207   0.0000       8.249454       224.4790 
 208   0.0000       8.259127       224.7423 
 209   0.0000       8.259461       224.7514 
 210   0.0000       8.468126       230.4294 
 211   0.0000       8.470570       230.4959 
 212   0.0000       8.537295       232.3116 
 213   0.0000       8.538516       232.3448 
 214   0.0000       8.854713       240.9490 
 215   0.0000       8.859214       241.0715 
 216   0.0000       9.682423       263.4721 
 217   0.0000      11.594757       315.5094 
 218   0.0000      11.595057       315.5175 
 219   0.0000      11.655963       317.1749 
 220   0.0000      11.656961       317.2020 
 221   0.0000      11.778687       320.5144 
 222   0.0000      11.787727       320.7604 
 223   0.0000      12.074768       328.5711 
 224   0.0000      12.075329       328.5864 
 225   0.0000      12.300135       334.7037 
 226   0.0000      12.352182       336.1200 
 227   0.0000      12.352981       336.1417 
 228   0.0000      12.625549       343.5586 
 229   0.0000      12.625593       343.5599 
 230   0.0000      12.645751       344.1084 
 231   0.0000      12.645759       344.1086 
 232   0.0000      12.671145       344.7994 
 233   0.0000      12.671156       344.7997 
 234   0.0000      12.849253       349.6460 
 235   0.0000      12.858773       349.9050 
 236   0.0000      12.859005       349.9113 
 237   0.0000      13.135356       357.4312 
 238   0.0000      13.138748       357.5235 
 239   0.0000      13.423267       365.2657 
 240   0.0000      14.180514       385.8714 
 241   0.0000      14.181193       385.8899 
 242   0.0000      14.566615       396.3778 
 243   0.0000      14.922534       406.0628 
 244   0.0000      14.922546       406.0631 
 245   0.0000      15.005602       408.3232 
 246   0.0000      15.005919       408.3318 
 247   0.0000      15.342826       417.4995 
 248   0.0000      15.358559       417.9276 
 249   0.0000      15.358653       417.9302 
 250   0.0000      15.839433       431.0129 
 251   0.0000      16.850255       458.5188 
 252   0.0000      16.850805       458.5337 
 253   0.0000      16.965448       461.6533 
 254   0.0000      16.971334       461.8135 
 255   0.0000      17.914886       487.4888 
 256   0.0000      20.067375       546.0610 
 257   0.0000      20.067872       546.0746 
 258   0.0000      20.095385       546.8232 
 259   0.0000      20.095397       546.8235 
 260   0.0000      20.419802       555.6511 
 261   0.0000      20.419877       555.6531 
 262   0.0000      21.029897       572.2526 
 263   0.0000      21.030030       572.2562 
 264   0.0000      21.611270       588.0726 
 265   0.0000      29.609813       805.7240 
 266   0.0000      30.233808       822.7037 
 267   0.0000      30.234708       822.7282 
 268   0.0000      30.490125       829.6785 
 269   0.0000      30.494319       829.7926 
 270   0.0000      31.080764       845.7506 
 271   0.0000      41.410903      1126.8480 
 272   0.0000      41.412872      1126.9015 
 273   0.0000      41.731835      1135.5810 
 274   0.0000      42.616216      1159.6462 
 275   0.0000      62.334572      1696.2099 
 276   0.0000      62.334696      1696.2133 
 277   0.0000      62.379720      1697.4385 
 278   0.0000      62.379843      1697.4418 
 279   0.0000      62.843079      1710.0471 
 280   0.0000      91.183635      2481.2329 
 281   0.0000      91.183919      2481.2406 
 282   0.0000      91.361463      2486.0718 
 283   0.0000      91.363108      2486.1166 
 284   0.0000      91.768964      2497.1605 
 285   0.0000     201.447443      5481.6636 

                    ********************************
                    * MULLIKEN POPULATION ANALYSIS *
                    ********************************

--------------------------------------------
MULLIKEN ATOMIC CHARGES AND SPIN POPULATIONS
--------------------------------------------
   0 S :    0.010254    0.915818
   1 F :   -0.010254    0.084182
Sum of atomic charges         :   -0.0000000
Sum of atomic spin populations:    1.0000000

-----------------------------------------------------
MULLIKEN REDUCED ORBITAL CHARGES AND SPIN POPULATIONS
-----------------------------------------------------
CHARGE
  0 S s       :     6.071453  s :     6.071453
      pz      :     2.584405  p :     9.720985
      px      :     3.108447
      py      :     4.028133
      dz2     :     0.053117  d :     0.160983
      dxz     :     0.050950
      dyz     :     0.055659
      dx2y2   :     0.001257
      dxy     :     0.000000
      f0      :     0.009519  f :     0.030717
      f+1     :     0.010535
      f-1     :     0.010131
      f+2     :     0.000039
      f-2     :     0.000000
      f+3     :     0.000233
      f-3     :     0.000260
      g0      :     0.002052  g :     0.005166
      g+1     :     0.001371
      g-1     :     0.001735
      g+2     :     0.000001
      g-2     :     0.000000
      g+3     :     0.000002
      g-3     :     0.000003
      g+4     :     0.000002
      g-4     :     0.000000
      h0      :     0.000350  h :     0.000441
      h+1     :     0.000053
      h-1     :     0.000037
      h+2     :     0.000000
      h-2     :     0.000000
      h+3     :     0.000000
      h-3     :     0.000000
      h+4     :     0.000000
      h-4     :     0.000000
      h+5     :     0.000000
      h-5     :     0.000001
  1 F s       :     3.870240  s :     3.870240
      pz      :     1.406621  p :     5.129573
      px      :     1.818635
      py      :     1.904317
      dz2     :    -0.000107  d :     0.007351
      dxz     :     0.006617
      dyz     :     0.000839
      dx2y2   :     0.000002
      dxy     :     0.000000
      f0      :     0.000651  f :     0.000694
      f+1     :     0.001806
      f-1     :    -0.001781
      f+2     :    -0.000010
      f-2     :    -0.000000
      f+3     :     0.000012
      f-3     :     0.000016
      g0      :     0.000332  g :     0.001762
      g+1     :     0.001022
      g-1     :     0.000400
      g+2     :    -0.000006
      g-2     :    -0.000000
      g+3     :     0.000006
      g-3     :     0.000008
      g+4     :     0.000000
      g-4     :     0.000000
      h0      :     0.000081  h :     0.000633
      h+1     :     0.000308
      h-1     :     0.000240
      h+2     :    -0.000001
      h-2     :    -0.000000
      h+3     :     0.000002
      h-3     :     0.000003
      h+4     :     0.000000
      h-4     :     0.000000
      h+5     :    -0.000000
      h-5     :    -0.000000

SPIN
  0 S s       :     0.004465  s :     0.004465
      pz      :     0.004533  p :     0.898691
      px      :     0.896502
      py      :    -0.002344
      dz2     :     0.002471  d :     0.012364
      dxz     :     0.008573
      dyz     :     0.000283
      dx2y2   :     0.001037
      dxy     :     0.000000
      f0      :    -0.000803  f :     0.000557
      f+1     :     0.000663
      f-1     :     0.000196
      f+2     :     0.000032
      f-2     :     0.000000
      f+3     :     0.000225
      f-3     :     0.000242
      g0      :    -0.000050  g :    -0.000253
      g+1     :    -0.000094
      g-1     :    -0.000112
      g+2     :    -0.000000
      g-2     :    -0.000000
      g+3     :     0.000002
      g-3     :     0.000003
      g+4     :    -0.000002
      g-4     :    -0.000000
      h0      :     0.000010  h :    -0.000005
      h+1     :    -0.000014
      h-1     :    -0.000000
      h+2     :    -0.000000
      h-2     :    -0.000000
      h+3     :     0.000000
      h-3     :     0.000000
      h+4     :    -0.000000
      h-4     :    -0.000000
      h+5     :    -0.000000
      h-5     :    -0.000001
  1 F s       :     0.000650  s :     0.000650
      pz      :    -0.010719  p :     0.078444
      px      :     0.089289
      py      :    -0.000126
      dz2     :    -0.001001  d :     0.001889
      dxz     :     0.002243
      dyz     :     0.000644
      dx2y2   :     0.000002
      dxy     :     0.000000
      f0      :    -0.000485  f :     0.001802
      f+1     :     0.001471
      f-1     :     0.000800
      f+2     :    -0.000009
      f-2     :    -0.000000
      f+3     :     0.000011
      f-3     :     0.000014
      g0      :    -0.000122  g :     0.001104
      g+1     :     0.000894
      g-1     :     0.000324
      g+2     :    -0.000007
      g-2     :    -0.000000
      g+3     :     0.000006
      g-3     :     0.000008
      g+4     :    -0.000000
      g-4     :    -0.000000
      h0      :    -0.000002  h :     0.000293
      h+1     :     0.000228
      h-1     :     0.000064
      h+2     :    -0.000002
      h-2     :    -0.000000
      h+3     :     0.000002
      h-3     :     0.000003
      h+4     :    -0.000000
      h-4     :    -0.000000
      h+5     :     0.000000
      h-5     :     0.000000


                     *******************************
                     * LOEWDIN POPULATION ANALYSIS *
                     *******************************

-------------------------------------------
LOEWDIN ATOMIC CHARGES AND SPIN POPULATIONS
-------------------------------------------
   0 S :    1.001000    0.671937
   1 F :   -1.001000    0.328063

----------------------------------------------------
LOEWDIN REDUCED ORBITAL CHARGES AND SPIN POPULATIONS
----------------------------------------------------
CHARGE
  0 S s       :     5.296178  s :     5.296178
      pz      :     2.656695  p :     8.936429
      px      :     2.823515
      py      :     3.456220
      dz2     :     0.193165  d :     0.426959
      dxz     :     0.106104
      dyz     :     0.126638
      dx2y2   :     0.001052
      dxy     :     0.000000
      f0      :     0.092321  f :     0.210823
      f+1     :     0.055903
      f-1     :     0.062100
      f+2     :     0.000045
      f-2     :     0.000000
      f+3     :     0.000215
      f-3     :     0.000240
      g0      :     0.037260  g :     0.093950
      g+1     :     0.025900
      g-1     :     0.030781
      g+2     :     0.000001
      g-2     :     0.000000
      g+3     :     0.000003
      g-3     :     0.000004
      g+4     :     0.000002
      g-4     :     0.000000
      h0      :     0.013782  h :     0.034660
      h+1     :     0.009770
      h-1     :     0.011106
      h+2     :     0.000000
      h-2     :     0.000000
      h+3     :     0.000000
      h-3     :     0.000000
      h+4     :     0.000000
      h-4     :     0.000000
      h+5     :     0.000000
      h-5     :     0.000001
  1 F s       :     3.658843  s :     3.658843
      pz      :     1.708215  p :     5.309374
      px      :     1.735689
      py      :     1.865469
      dz2     :     0.204620  d :     0.535401
      dxz     :     0.113298
      dyz     :     0.217461
      dx2y2   :     0.000023
      dxy     :     0.000000
      f0      :     0.088128  f :     0.299490
      f+1     :     0.074496
      f-1     :     0.136798
      f+2     :     0.000046
      f-2     :     0.000000
      f+3     :     0.000010
      f-3     :     0.000012
      g0      :     0.032911  g :     0.136318
      g+1     :     0.037838
      g-1     :     0.065477
      g+2     :     0.000061
      g-2     :     0.000000
      g+3     :     0.000013
      g-3     :     0.000017
      g+4     :     0.000000
      g-4     :     0.000000
      h0      :     0.016595  h :     0.061574
      h+1     :     0.017233
      h-1     :     0.027660
      h+2     :     0.000055
      h-2     :     0.000000
      h+3     :     0.000014
      h-3     :     0.000017
      h+4     :     0.000000
      h-4     :     0.000000
      h+5     :     0.000000
      h-5     :     0.000000

SPIN
  0 S s       :     0.001320  s :     0.001320
      pz      :    -0.002032  p :     0.637075
      px      :     0.638717
      py      :     0.000390
      dz2     :     0.003047  d :     0.022471
      dxz     :     0.019547
      dyz     :    -0.000992
      dx2y2   :     0.000870
      dxy     :     0.000000
      f0      :    -0.001099  f :     0.006187
      f+1     :     0.006693
      f-1     :     0.000124
      f+2     :     0.000036
      f-2     :     0.000000
      f+3     :     0.000209
      f-3     :     0.000225
      g0      :    -0.000090  g :     0.003759
      g+1     :     0.004007
      g-1     :    -0.000161
      g+2     :    -0.000000
      g-2     :    -0.000000
      g+3     :     0.000003
      g-3     :     0.000003
      g+4     :    -0.000002
      g-4     :    -0.000000
      h0      :    -0.000023  h :     0.001123
      h+1     :     0.001158
      h-1     :    -0.000012
      h+2     :    -0.000000
      h-2     :    -0.000000
      h+3     :    -0.000000
      h-3     :     0.000000
      h+4     :    -0.000000
      h-4     :    -0.000000
      h+5     :    -0.000000
      h-5     :    -0.000001
  1 F s       :     0.000739  s :     0.000739
      pz      :    -0.003935  p :     0.117191
      px      :     0.121452
      py      :    -0.000325
      dz2     :     0.001311  d :     0.096196
      dxz     :     0.095691
      dyz     :    -0.000824
      dx2y2   :     0.000018
      dxy     :     0.000000
      f0      :     0.000267  f :     0.068289
      f+1     :     0.067187
      f-1     :     0.000779
      f+2     :     0.000037
      f-2     :     0.000000
      f+3     :     0.000008
      f-3     :     0.000011
      g0      :    -0.000358  g :     0.032908
      g+1     :     0.032615
      g-1     :     0.000574
      g+2     :     0.000049
      g-2     :     0.000000
      g+3     :     0.000013
      g-3     :     0.000016
      g+4     :    -0.000000
      g-4     :    -0.000000
      h0      :    -0.000199  h :     0.012740
      h+1     :     0.012688
      h-1     :     0.000178
      h+2     :     0.000044
      h-2     :     0.000000
      h+3     :     0.000013
      h-3     :     0.000016
      h+4     :    -0.000000
      h-4     :    -0.000000
      h+5     :    -0.000000
      h-5     :    -0.000000


                      *****************************
                      * MAYER POPULATION ANALYSIS *
                      *****************************

  NA   - Mulliken gross atomic population
  ZA   - Total nuclear charge
  QA   - Mulliken gross atomic charge
  VA   - Mayer's total valence
  BVA  - Mayer's bonded valence
  FA   - Mayer's free valence

  ATOM       NA         ZA         QA         VA         BVA        FA
  0 S     15.9897    16.0000     0.0103     1.7980     0.9729     0.8251
  1 F      9.0103     9.0000    -0.0103     0.9918     0.9729     0.0189

  Mayer bond orders larger than 0.1
B(  0-S ,  1-F ) :   0.9729 

-------
TIMINGS
-------

Total SCF time: 0 days 0 hours 6 min 47 sec 

Total time                  ....     407.497 sec
Sum of individual times     ....     406.825 sec  ( 99.8%)

Fock matrix formation       ....     404.915 sec  ( 99.4%)
  XC integration            ....       6.938 sec  (  1.7% of F)
    Basis function eval.    ....       0.586 sec  (  8.5% of XC)
    Density eval.           ....       1.379 sec  ( 19.9% of XC)
    XC-Functional eval.     ....       0.117 sec  (  1.7% of XC)
    XC-Potential eval.      ....       4.403 sec  ( 63.5% of XC)
Diagonalization             ....       0.714 sec  (  0.2%)
Density matrix formation    ....       0.015 sec  (  0.0%)
Population analysis         ....       0.063 sec  (  0.0%)
Initial guess               ....       0.364 sec  (  0.1%)
Orbital Transformation      ....       0.000 sec  (  0.0%)
Orbital Orthonormalization  ....       0.000 sec  (  0.0%)
DIIS solution               ....       0.490 sec  (  0.1%)
Grid generation             ....       0.264 sec  (  0.1%)

-------------------------   --------------------
FINAL SINGLE POINT ENERGY      -497.781058996945
-------------------------   --------------------


                            ***************************************
                            *     ORCA property calculations      *
                            ***************************************

                                    ---------------------
                                    Active property flags
                                    ---------------------
   (+) Dipole Moment


------------------------------------------------------------------------------
                       ORCA ELECTRIC PROPERTIES CALCULATION
------------------------------------------------------------------------------

Dipole Moment Calculation                       ... on
Quadrupole Moment Calculation                   ... off
Polarizability Calculation                      ... off
GBWName                                         ... sf_pbe_-0001_z.gbw
Electron density file                           ... sf_pbe_-0001_z.scfp.tmp
The origin for moment calculation is the CENTER OF MASS  = ( 0.000000,  0.000000  1.125449)

-------------
DIPOLE MOMENT
-------------
                                X             Y             Z
Electronic contribution:     -0.00000       0.00000       0.67477
Nuclear contribution   :      0.00000       0.00000      -0.91396
                        -----------------------------------------
Total Dipole Moment    :     -0.00000       0.00000      -0.23919
                        -----------------------------------------
Magnitude (a.u.)       :      0.23919
Magnitude (Debye)      :      0.60796



--------------------
Rotational spectrum 
--------------------
 
Rotational constants in cm-1:     0.000000     0.551599     0.551599 
Rotational constants in MHz :     0.000000 16536.529748 16536.529748 

 Dipole components along the rotational axes: 
x,y,z [a.u.] :    -0.239186     0.000000    -0.000000 
x,y,z [Debye]:    -0.607963     0.000000    -0.000000 

 

Timings for individual modules:

Sum of individual times         ...      409.483 sec (=   6.825 min)
GTO integral calculation        ...        1.668 sec (=   0.028 min)   0.4 %
SCF iterations                  ...      407.816 sec (=   6.797 min)  99.6 %
                             ****ORCA TERMINATED NORMALLY****
TOTAL RUN TIME: 0 days 0 hours 6 minutes 50 seconds 339 msec
